 Entering Gaussian System, Link 0=g09
 Input=/scratch/jh6oh/uracil/Uracil_Protonation/PM6/5-Fluorouracil_2W_50_PM6.gjf
 Output=/scratch/jh6oh/uracil/Uracil_Protonation/PM6/5-Fluorouracil_2W_50_PM6.log
 Initial command:
 /usr/local/g09/l1.exe /tmp/Gau-9138.inp -scrdir=/tmp/
 Entering Link 1 = /usr/local/g09/l1.exe PID=      9140.
  
 Copyright (c) 1988,1990,1992,1993,1995,1998,2003,2009, Gaussian, Inc.
                  All Rights Reserved.
  
 This is part of the Gaussian(R) 09 program.  It is based on
 the Gaussian(R) 03 system (copyright 2003, Gaussian, Inc.),
 the Gaussian(R) 98 system (copyright 1998, Gaussian, Inc.),
 the Gaussian(R) 94 system (copyright 1995, Gaussian, Inc.),
 the Gaussian 92(TM) system (copyright 1992, Gaussian, Inc.),
 the Gaussian 90(TM) system (copyright 1990, Gaussian, Inc.),
 the Gaussian 88(TM) system (copyright 1988, Gaussian, Inc.),
 the Gaussian 86(TM) system (copyright 1986, Carnegie Mellon
 University), and the Gaussian 82(TM) system (copyright 1983,
 Carnegie Mellon University). Gaussian is a federally registered
 trademark of Gaussian, Inc.
  
 This software contains proprietary and confidential information,
 including trade secrets, belonging to Gaussian, Inc.
  
 This software is provided under written license and may be
 used, copied, transmitted, or stored only in accord with that
 written license.
  
 The following legend is applicable only to US Government
 contracts under FAR:
  
                    RESTRICTED RIGHTS LEGEND
  
 Use, reproduction and disclosure by the US Government is
 subject to restrictions as set forth in subparagraphs (a)
 and (c) of the Commercial Computer Software - Restricted
 Rights clause in FAR 52.227-19.
  
 Gaussian, Inc.
 340 Quinnipiac St., Bldg. 40, Wallingford CT 06492
  
  
 ---------------------------------------------------------------
 Warning -- This program may not be used in any manner that
 competes with the business of Gaussian, Inc. or will provide
 assistance to any competitor of Gaussian, Inc.  The licensee
 of this program is prohibited from giving any competitor of
 Gaussian, Inc. access to this program.  By using this program,
 the user acknowledges that Gaussian, Inc. is engaged in the
 business of creating and licensing software in the field of
 computational chemistry and represents and warrants to the
 licensee that it is not a competitor of Gaussian, Inc. and that
 it will not use this program in any manner prohibited above.
 ---------------------------------------------------------------
  

 Cite this work as:
 Gaussian 09, Revision A.02,
 M. J. Frisch, G. W. Trucks, H. B. Schlegel, G. E. Scuseria, 
 M. A. Robb, J. R. Cheeseman, G. Scalmani, V. Barone, B. Mennucci, 
 G. A. Petersson, H. Nakatsuji, M. Caricato, X. Li, H. P. Hratchian, 
 A. F. Izmaylov, J. Bloino, G. Zheng, J. L. Sonnenberg, M. Hada, 
 M. Ehara, K. Toyota, R. Fukuda, J. Hasegawa, M. Ishida, T. Nakajima, 
 Y. Honda, O. Kitao, H. Nakai, T. Vreven, J. A. Montgomery, Jr., 
 J. E. Peralta, F. Ogliaro, M. Bearpark, J. J. Heyd, E. Brothers, 
 K. N. Kudin, V. N. Staroverov, R. Kobayashi, J. Normand, 
 K. Raghavachari, A. Rendell, J. C. Burant, S. S. Iyengar, J. Tomasi, 
 M. Cossi, N. Rega, J. M. Millam, M. Klene, J. E. Knox, J. B. Cross, 
 V. Bakken, C. Adamo, J. Jaramillo, R. Gomperts, R. E. Stratmann, 
 O. Yazyev, A. J. Austin, R. Cammi, C. Pomelli, J. W. Ochterski, 
 R. L. Martin, K. Morokuma, V. G. Zakrzewski, G. A. Voth, 
 P. Salvador, J. J. Dannenberg, S. Dapprich, A. D. Daniels, 
 O. Farkas, J. B. Foresman, J. V. Ortiz, J. Cioslowski, 
 and D. J. Fox, Gaussian, Inc., Wallingford CT, 2009.
 
 ******************************************
 Gaussian 09:  AM64L-G09RevA.02 11-Jun-2009
                 7-Feb-2017 
 ******************************************
 %nosave
 %mem=2500MB
 %NProc=4
 Will use up to    4 processors via shared memory.
 ---------
 # opt pm6
 ---------
 1/14=-1,18=20,19=15,26=1,38=1/1,3;
 2/9=110,12=2,17=6,18=5,40=1/2;
 3/5=2,16=1,25=1,41=3900000,71=1/1,2,3;
 4/35=1/1;
 5/5=2,35=1,38=5/2;
 6/7=2,8=2,9=2,10=2,28=1/1;
 7//1,2,3,16;
 1/14=-1,18=20,19=15/3(2);
 2/9=110/2;
 99//99;
 2/9=110/2;
 3/5=2,16=1,25=1,41=3900000,71=1,135=20/1,2,3;
 4/5=5,16=3,35=1/1;
 5/5=2,35=1,38=5/2;
 7//1,2,3,16;
 1/14=-1,18=20,19=15/3(-5);
 2/9=110/2;
 6/7=2,8=2,9=2,10=2,19=2,28=1/1;
 99/9=1/99;
 ------------------------
 5-Fluorouracil_2W_50_PM6
 ------------------------
 Symbolic Z-matrix:
 Charge =  1 Multiplicity = 1
 C                     2.82766  -0.11825   0.17196 
 N                     2.50649   1.2291   -0.0104 
 C                     1.19387   1.65897  -0.21463 
 C                     0.23611   0.69966  -0.2276 
 N                     1.83328  -1.0499    0.1512 
 H                     0.91341   2.69649  -0.35917 
 H                     3.28354   1.87628   0.01586 
 F                    -1.06933   1.09505  -0.4263 
 C                     0.52618  -0.7107   -0.04258 
 O                    -0.44952  -1.66619  -0.05874 
 H                    -1.34843  -1.33435  -0.20465 
 O                     4.11431  -0.51364   0.37007 
 H                     4.18415  -1.46732   0.4805 
 O                    -5.18234   0.68119   0.64835 
 H                    -5.74312   1.28544   0.15854 
 H                    -5.62397   0.5859    1.49425 
 O                    -3.17983  -1.20375  -0.44691 
 H                    -3.7971   -1.79291  -0.8861 
 H                    -3.74667  -0.51826  -0.07323 
 

 GradGradGradGradGradGradGradGradGradGradGradGradGradGradGradGradGradGrad
 Berny optimization.
 Initialization pass.
                           ----------------------------
                           !    Initial Parameters    !
                           ! (Angstroms and Degrees)  !
 --------------------------                            --------------------------
 ! Name  Definition              Value          Derivative Info.                !
 --------------------------------------------------------------------------------
 ! R1    R(1,2)                  1.3971         estimate D2E/DX2                !
 ! R2    R(1,5)                  1.3628         estimate D2E/DX2                !
 ! R3    R(1,12)                 1.3605         estimate D2E/DX2                !
 ! R4    R(2,3)                  1.3962         estimate D2E/DX2                !
 ! R5    R(2,7)                  1.0116         estimate D2E/DX2                !
 ! R6    R(3,4)                  1.3556         estimate D2E/DX2                !
 ! R7    R(3,6)                  1.0844         estimate D2E/DX2                !
 ! R8    R(4,8)                  1.3784         estimate D2E/DX2                !
 ! R9    R(4,9)                  1.4517         estimate D2E/DX2                !
 ! R10   R(5,9)                  1.3642         estimate D2E/DX2                !
 ! R11   R(9,10)                 1.3657         estimate D2E/DX2                !
 ! R12   R(10,11)                0.9693         estimate D2E/DX2                !
 ! R13   R(11,17)                1.852          estimate D2E/DX2                !
 ! R14   R(12,13)                0.9626         estimate D2E/DX2                !
 ! R15   R(14,15)                0.9589         estimate D2E/DX2                !
 ! R16   R(14,16)                0.959          estimate D2E/DX2                !
 ! R17   R(14,19)                2.0051         estimate D2E/DX2                !
 ! R18   R(17,18)                0.9597         estimate D2E/DX2                !
 ! R19   R(17,19)                0.9648         estimate D2E/DX2                !
 ! A1    A(2,1,5)              119.3133         estimate D2E/DX2                !
 ! A2    A(2,1,12)             121.1103         estimate D2E/DX2                !
 ! A3    A(5,1,12)             119.5765         estimate D2E/DX2                !
 ! A4    A(1,2,3)              122.1503         estimate D2E/DX2                !
 ! A5    A(1,2,7)              115.9134         estimate D2E/DX2                !
 ! A6    A(3,2,7)              121.9362         estimate D2E/DX2                !
 ! A7    A(2,3,4)              116.5975         estimate D2E/DX2                !
 ! A8    A(2,3,6)              123.8616         estimate D2E/DX2                !
 ! A9    A(4,3,6)              119.5409         estimate D2E/DX2                !
 ! A10   A(3,4,8)              117.8718         estimate D2E/DX2                !
 ! A11   A(3,4,9)              123.0319         estimate D2E/DX2                !
 ! A12   A(8,4,9)              119.0963         estimate D2E/DX2                !
 ! A13   A(1,5,9)              122.0929         estimate D2E/DX2                !
 ! A14   A(4,9,5)              116.8141         estimate D2E/DX2                !
 ! A15   A(4,9,10)             122.3733         estimate D2E/DX2                !
 ! A16   A(5,9,10)             120.8126         estimate D2E/DX2                !
 ! A17   A(9,10,11)            115.1395         estimate D2E/DX2                !
 ! A18   A(10,11,17)           163.9387         estimate D2E/DX2                !
 ! A19   A(1,12,13)            111.9152         estimate D2E/DX2                !
 ! A20   A(15,14,16)           104.1144         estimate D2E/DX2                !
 ! A21   A(15,14,19)           127.7233         estimate D2E/DX2                !
 ! A22   A(16,14,19)           125.996          estimate D2E/DX2                !
 ! A23   A(11,17,18)           130.7396         estimate D2E/DX2                !
 ! A24   A(11,17,19)           125.4814         estimate D2E/DX2                !
 ! A25   A(18,17,19)           103.6228         estimate D2E/DX2                !
 ! A26   A(14,19,17)           170.0849         estimate D2E/DX2                !
 ! D1    D(5,1,2,3)              0.0026         estimate D2E/DX2                !
 ! D2    D(5,1,2,7)            179.9119         estimate D2E/DX2                !
 ! D3    D(12,1,2,3)          -179.9665         estimate D2E/DX2                !
 ! D4    D(12,1,2,7)            -0.0573         estimate D2E/DX2                !
 ! D5    D(2,1,5,9)             -0.0087         estimate D2E/DX2                !
 ! D6    D(12,1,5,9)           179.9609         estimate D2E/DX2                !
 ! D7    D(2,1,12,13)          179.9722         estimate D2E/DX2                !
 ! D8    D(5,1,12,13)            0.0031         estimate D2E/DX2                !
 ! D9    D(1,2,3,4)              0.0172         estimate D2E/DX2                !
 ! D10   D(1,2,3,6)           -179.9929         estimate D2E/DX2                !
 ! D11   D(7,2,3,4)           -179.8866         estimate D2E/DX2                !
 ! D12   D(7,2,3,6)              0.1032         estimate D2E/DX2                !
 ! D13   D(2,3,4,8)            179.9544         estimate D2E/DX2                !
 ! D14   D(2,3,4,9)             -0.0317         estimate D2E/DX2                !
 ! D15   D(6,3,4,8)             -0.036          estimate D2E/DX2                !
 ! D16   D(6,3,4,9)            179.978          estimate D2E/DX2                !
 ! D17   D(3,4,9,5)              0.0262         estimate D2E/DX2                !
 ! D18   D(3,4,9,10)          -179.9695         estimate D2E/DX2                !
 ! D19   D(8,4,9,5)           -179.9597         estimate D2E/DX2                !
 ! D20   D(8,4,9,10)             0.0446         estimate D2E/DX2                !
 ! D21   D(1,5,9,4)             -0.0046         estimate D2E/DX2                !
 ! D22   D(1,5,9,10)           179.9911         estimate D2E/DX2                !
 ! D23   D(4,9,10,11)            0.1357         estimate D2E/DX2                !
 ! D24   D(5,9,10,11)         -179.8598         estimate D2E/DX2                !
 ! D25   D(9,10,11,17)         179.5645         estimate D2E/DX2                !
 ! D26   D(10,11,17,18)        -34.902          estimate D2E/DX2                !
 ! D27   D(10,11,17,19)        139.7878         estimate D2E/DX2                !
 ! D28   D(15,14,19,17)        -86.1052         estimate D2E/DX2                !
 ! D29   D(16,14,19,17)         74.4542         estimate D2E/DX2                !
 ! D30   D(11,17,19,14)       -159.568          estimate D2E/DX2                !
 ! D31   D(18,17,19,14)         16.2944         estimate D2E/DX2                !
 --------------------------------------------------------------------------------
 Trust Radius=3.00D-01 FncErr=1.00D-07 GrdErr=1.00D-07
 Number of steps in this run=  86 maximum allowed number of steps= 114.
 GradGradGradGradGradGradGradGradGradGradGradGradGradGradGradGradGradGrad

                          Input orientation:                          
 ---------------------------------------------------------------------
 Center     Atomic      Atomic             Coordinates (Angstroms)
 Number     Number       Type             X           Y           Z
 ---------------------------------------------------------------------
      1          6           0        2.827656   -0.118249    0.171963
      2          7           0        2.506485    1.229103   -0.010402
      3          6           0        1.193867    1.658972   -0.214632
      4          6           0        0.236111    0.699656   -0.227604
      5          7           0        1.833283   -1.049902    0.151200
      6          1           0        0.913410    2.696490   -0.359173
      7          1           0        3.283541    1.876278    0.015859
      8          9           0       -1.069330    1.095046   -0.426301
      9          6           0        0.526176   -0.710704   -0.042578
     10          8           0       -0.449524   -1.666194   -0.058735
     11          1           0       -1.348433   -1.334353   -0.204651
     12          8           0        4.114312   -0.513636    0.370074
     13          1           0        4.184146   -1.467322    0.480497
     14          8           0       -5.182343    0.681185    0.648354
     15          1           0       -5.743124    1.285436    0.158540
     16          1           0       -5.623974    0.585902    1.494251
     17          8           0       -3.179828   -1.203746   -0.446914
     18          1           0       -3.797104   -1.792912   -0.886097
     19          1           0       -3.746672   -0.518260   -0.073229
 ---------------------------------------------------------------------
                    Distance matrix (angstroms):
                    1          2          3          4          5
     1  C    0.000000
     2  N    1.397056   0.000000
     3  C    2.444839   1.396232   0.000000
     4  C    2.746767   2.341386   1.355637   0.000000
     5  N    1.362786   2.381844   2.807256   2.399042   0.000000
     6  H    3.445170   2.193799   1.084432   2.112674   3.891285
     7  H    2.051911   1.011603   2.113548   3.275751   3.268653
     8  F    4.125107   3.602415   2.341981   1.378401   3.655061
     9  C    2.386177   2.772275   2.467950   1.451719   1.364234
    10  O    3.631703   4.138003   3.712380   2.468979   2.373836
    11  H    4.365829   4.633512   3.927262   2.578468   3.214165
    12  O    1.360538   2.401460   3.686612   4.107279   2.353419
    13  H    1.937848   3.213446   4.381631   4.558967   2.410235
    14  O    8.063878   7.736424   6.508215   5.488833   7.243123
    15  H    8.684974   8.251531   6.957056   6.020257   7.928165
    16  H    8.583375   8.293495   7.110184   6.108872   7.751795
    17  O    6.136055   6.200278   5.232429   3.916590   5.051009
    18  H    6.914581   7.045186   6.105421   4.786787   5.773154
    19  H    6.591048   6.493011   5.400857   4.167699   5.609716
                    6          7          8          9         10
     6  H    0.000000
     7  H    2.535925   0.000000
     8  F    2.549586   4.444470   0.000000
     9  C    3.443712   3.781396   2.440003   0.000000
    10  O    4.580487   5.146887   2.853719   1.365728   0.000000
    11  H    4.624663   5.640209   2.455404   1.982263   0.969251
    12  O    4.591567   2.554865   5.485637   3.617159   4.726613
    13  H    5.360978   3.493800   5.914983   3.771846   4.669178
    14  O    6.498828   8.573184   4.271187   5.916243   5.330079
    15  H    6.824115   9.047106   4.714089   6.582488   6.064778
    16  H    7.115276   9.121104   4.969158   6.470500   5.853088
    17  O    5.654568   7.174667   3.120749   3.760458   2.796266
    18  H    6.528501   8.025710   3.999058   4.535796   3.450634
    19  H    5.668575   7.427358   3.145723   4.277289   3.491296
                   11         12         13         14         15
    11  H    0.000000
    12  O    5.553870   0.000000
    13  H    5.576427   0.962594   0.000000
    14  O    4.414621   9.377251   9.611211   0.000000
    15  H    5.129182  10.022497  10.306892   0.958912   0.000000
    16  H    4.985368   9.864430  10.071874   0.958988   1.512504
    17  O    1.851960   7.372123   7.426821   2.960176   3.623960
    18  H    2.582757   8.112029   8.103946   3.224063   3.788732
    19  H    2.536697   7.873475   8.006573   2.005119   2.700529
                   16         17         18         19
    16  H    0.000000
    17  O    3.597890   0.000000
    18  H    3.829134   0.959702   0.000000
    19  H    2.683362   0.964802   1.512625   0.000000
 Stoichiometry    C4H8FN2O4(1+)
 Framework group  C1[X(C4H8FN2O4)]
 Deg. of freedom    51
 Full point group                 C1      NOp   1
 Largest Abelian subgroup         C1      NOp   1
 Largest concise Abelian subgroup C1      NOp   1
                         Standard orientation:                         
 ---------------------------------------------------------------------
 Center     Atomic      Atomic             Coordinates (Angstroms)
 Number     Number       Type             X           Y           Z
 ---------------------------------------------------------------------
      1          6           0        2.827656   -0.118249    0.171963
      2          7           0        2.506485    1.229103   -0.010402
      3          6           0        1.193867    1.658972   -0.214632
      4          6           0        0.236111    0.699656   -0.227604
      5          7           0        1.833283   -1.049902    0.151200
      6          1           0        0.913410    2.696490   -0.359173
      7          1           0        3.283541    1.876278    0.015859
      8          9           0       -1.069330    1.095046   -0.426301
      9          6           0        0.526176   -0.710704   -0.042578
     10          8           0       -0.449524   -1.666194   -0.058735
     11          1           0       -1.348433   -1.334353   -0.204651
     12          8           0        4.114312   -0.513636    0.370074
     13          1           0        4.184146   -1.467322    0.480497
     14          8           0       -5.182343    0.681185    0.648354
     15          1           0       -5.743124    1.285436    0.158540
     16          1           0       -5.623974    0.585902    1.494251
     17          8           0       -3.179828   -1.203746   -0.446914
     18          1           0       -3.797104   -1.792912   -0.886097
     19          1           0       -3.746672   -0.518260   -0.073229
 ---------------------------------------------------------------------
 Rotational constants (GHZ):      2.2459214      0.3934954      0.3443820
 Standard basis: VSTO-6G (5D, 7F)
 There are    52 symmetry adapted basis functions of A   symmetry.
 Integral buffers will be    131072 words long.
 Regular integral format.
 Two-electron integral symmetry is turned off.
    52 basis functions,   312 primitive gaussians,    52 cartesian basis functions
    32 alpha electrons       32 beta electrons
       nuclear repulsion energy       398.4495903188 Hartrees.
 Do NDO integrals.
 One-electron integrals computed using PRISM.
 NBasis=    52 RedAO= F  NBF=    52
 NBsUse=    52 1.00D-04 NBFU=    52
 Simple Huckel Guess.
 Initial guess orbital symmetries:
       Occupied  (A) (A) (A) (A) (A) (A) (A) (A) (A) (A) (A) (A)
                 (A) (A) (A) (A) (A) (A) (A) (A) (A) (A) (A) (A)
                 (A) (A) (A) (A) (A) (A) (A) (A)
       Virtual   (A) (A) (A) (A) (A) (A) (A) (A) (A) (A) (A) (A)
                 (A) (A) (A) (A) (A) (A) (A) (A)
 The electronic state of the initial guess is 1-A.
 Requested convergence on RMS density matrix=1.00D-08 within 128 cycles.
 Requested convergence on MAX density matrix=1.00D-06.
 Requested convergence on             energy=1.00D-06.
 No special actions if energy rises.
 Overlap will be assumed to be unity.
 Keep J ints in memory in canonical form, NReq=892846.
 SCF Done:  E(RPM6) = -0.637822390946E-01 A.U. after   16 cycles
             Convg  =    0.3639D-08             -V/T =  0.9996

 **********************************************************************

            Population analysis using the SCF density.

 **********************************************************************

 Orbital symmetries:
       Occupied  (A) (A) (A) (A) (A) (A) (A) (A) (A) (A) (A) (A)
                 (A) (A) (A) (A) (A) (A) (A) (A) (A) (A) (A) (A)
                 (A) (A) (A) (A) (A) (A) (A) (A)
       Virtual   (A) (A) (A) (A) (A) (A) (A) (A) (A) (A) (A) (A)
                 (A) (A) (A) (A) (A) (A) (A) (A)
 The electronic state is 1-A.
 Alpha  occ. eigenvalues --   -1.72167  -1.46183  -1.36304  -1.34461  -1.31612
 Alpha  occ. eigenvalues --   -1.21877  -1.20835  -1.19896  -1.08016  -1.05754
 Alpha  occ. eigenvalues --   -0.94192  -0.90129  -0.87765  -0.86116  -0.80619
 Alpha  occ. eigenvalues --   -0.79202  -0.78883  -0.77610  -0.77339  -0.76856
 Alpha  occ. eigenvalues --   -0.74407  -0.71139  -0.69942  -0.68348  -0.66648
 Alpha  occ. eigenvalues --   -0.64758  -0.62471  -0.58707  -0.58482  -0.55517
 Alpha  occ. eigenvalues --   -0.55130  -0.54345
 Alpha virt. eigenvalues --   -0.21730  -0.20375  -0.18551  -0.14827  -0.12454
 Alpha virt. eigenvalues --   -0.11336  -0.09502  -0.09311  -0.06930  -0.04653
 Alpha virt. eigenvalues --   -0.04100  -0.01406  -0.00362   0.01335   0.02040
 Alpha virt. eigenvalues --    0.02614   0.04965   0.07878   0.11669   0.12041
          Condensed to atoms (all electrons):
              1          2          3          4          5          6
     1  C    3.440682   0.000000   0.000000   0.000000   0.000000   0.000000
     2  N    0.000000   5.262703   0.000000   0.000000   0.000000   0.000000
     3  C    0.000000   0.000000   3.899075   0.000000   0.000000   0.000000
     4  C    0.000000   0.000000   0.000000   4.181756   0.000000   0.000000
     5  N    0.000000   0.000000   0.000000   0.000000   5.471046   0.000000
     6  H    0.000000   0.000000   0.000000   0.000000   0.000000   0.768550
     7  H    0.000000   0.000000   0.000000   0.000000   0.000000   0.000000
     8  F    0.000000   0.000000   0.000000   0.000000   0.000000   0.000000
     9  C    0.000000   0.000000   0.000000   0.000000   0.000000   0.000000
    10  O    0.000000   0.000000   0.000000   0.000000   0.000000   0.000000
    11  H    0.000000   0.000000   0.000000   0.000000   0.000000   0.000000
    12  O    0.000000   0.000000   0.000000   0.000000   0.000000   0.000000
    13  H    0.000000   0.000000   0.000000   0.000000   0.000000   0.000000
    14  O    0.000000   0.000000   0.000000   0.000000   0.000000   0.000000
    15  H    0.000000   0.000000   0.000000   0.000000   0.000000   0.000000
    16  H    0.000000   0.000000   0.000000   0.000000   0.000000   0.000000
    17  O    0.000000   0.000000   0.000000   0.000000   0.000000   0.000000
    18  H    0.000000   0.000000   0.000000   0.000000   0.000000   0.000000
    19  H    0.000000   0.000000   0.000000   0.000000   0.000000   0.000000
              7          8          9         10         11         12
     1  C    0.000000   0.000000   0.000000   0.000000   0.000000   0.000000
     2  N    0.000000   0.000000   0.000000   0.000000   0.000000   0.000000
     3  C    0.000000   0.000000   0.000000   0.000000   0.000000   0.000000
     4  C    0.000000   0.000000   0.000000   0.000000   0.000000   0.000000
     5  N    0.000000   0.000000   0.000000   0.000000   0.000000   0.000000
     6  H    0.000000   0.000000   0.000000   0.000000   0.000000   0.000000
     7  H    0.689722   0.000000   0.000000   0.000000   0.000000   0.000000
     8  F    0.000000   7.013812   0.000000   0.000000   0.000000   0.000000
     9  C    0.000000   0.000000   3.438869   0.000000   0.000000   0.000000
    10  O    0.000000   0.000000   0.000000   6.294092   0.000000   0.000000
    11  H    0.000000   0.000000   0.000000   0.000000   0.618946   0.000000
    12  O    0.000000   0.000000   0.000000   0.000000   0.000000   6.320869
    13  H    0.000000   0.000000   0.000000   0.000000   0.000000   0.000000
    14  O    0.000000   0.000000   0.000000   0.000000   0.000000   0.000000
    15  H    0.000000   0.000000   0.000000   0.000000   0.000000   0.000000
    16  H    0.000000   0.000000   0.000000   0.000000   0.000000   0.000000
    17  O    0.000000   0.000000   0.000000   0.000000   0.000000   0.000000
    18  H    0.000000   0.000000   0.000000   0.000000   0.000000   0.000000
    19  H    0.000000   0.000000   0.000000   0.000000   0.000000   0.000000
             13         14         15         16         17         18
     1  C    0.000000   0.000000   0.000000   0.000000   0.000000   0.000000
     2  N    0.000000   0.000000   0.000000   0.000000   0.000000   0.000000
     3  C    0.000000   0.000000   0.000000   0.000000   0.000000   0.000000
     4  C    0.000000   0.000000   0.000000   0.000000   0.000000   0.000000
     5  N    0.000000   0.000000   0.000000   0.000000   0.000000   0.000000
     6  H    0.000000   0.000000   0.000000   0.000000   0.000000   0.000000
     7  H    0.000000   0.000000   0.000000   0.000000   0.000000   0.000000
     8  F    0.000000   0.000000   0.000000   0.000000   0.000000   0.000000
     9  C    0.000000   0.000000   0.000000   0.000000   0.000000   0.000000
    10  O    0.000000   0.000000   0.000000   0.000000   0.000000   0.000000
    11  H    0.000000   0.000000   0.000000   0.000000   0.000000   0.000000
    12  O    0.000000   0.000000   0.000000   0.000000   0.000000   0.000000
    13  H    0.620031   0.000000   0.000000   0.000000   0.000000   0.000000
    14  O    0.000000   6.643260   0.000000   0.000000   0.000000   0.000000
    15  H    0.000000   0.000000   0.675185   0.000000   0.000000   0.000000
    16  H    0.000000   0.000000   0.000000   0.674225   0.000000   0.000000
    17  O    0.000000   0.000000   0.000000   0.000000   6.675492   0.000000
    18  H    0.000000   0.000000   0.000000   0.000000   0.000000   0.661717
    19  H    0.000000   0.000000   0.000000   0.000000   0.000000   0.000000
             19
     1  C    0.000000
     2  N    0.000000
     3  C    0.000000
     4  C    0.000000
     5  N    0.000000
     6  H    0.000000
     7  H    0.000000
     8  F    0.000000
     9  C    0.000000
    10  O    0.000000
    11  H    0.000000
    12  O    0.000000
    13  H    0.000000
    14  O    0.000000
    15  H    0.000000
    16  H    0.000000
    17  O    0.000000
    18  H    0.000000
    19  H    0.649968
 Mulliken atomic charges:
              1
     1  C    0.559318
     2  N   -0.262703
     3  C    0.100925
     4  C   -0.181756
     5  N   -0.471046
     6  H    0.231450
     7  H    0.310278
     8  F   -0.013812
     9  C    0.561131
    10  O   -0.294092
    11  H    0.381054
    12  O   -0.320869
    13  H    0.379969
    14  O   -0.643260
    15  H    0.324815
    16  H    0.325775
    17  O   -0.675492
    18  H    0.338283
    19  H    0.350032
 Sum of Mulliken atomic charges =   1.00000
 Mulliken charges with hydrogens summed into heavy atoms:
              1
     1  C    0.559318
     2  N    0.047575
     3  C    0.332375
     4  C   -0.181756
     5  N   -0.471046
     8  F   -0.013812
     9  C    0.561131
    10  O    0.086962
    12  O    0.059101
    14  O    0.007329
    17  O    0.012823
 Sum of Mulliken charges with hydrogens summed into heavy atoms =   1.00000
 Charge=              1.0000 electrons
 Dipole moment (field-independent basis, Debye):
    X=              2.7439    Y=              4.2035    Z=              0.2629  Tot=              5.0267
 N-N= 3.984495903188D+02 E-N=-5.761497057245D+02  KE=-1.631628244110D+02
 Calling FoFJK, ICntrl=      2127 FMM=F ISym2X=0 I1Cent= 0 IOpClX= 0 NMat=1 NMatS=1 NMatT=0.
 ***** Axes restored to original set *****
 -------------------------------------------------------------------
 Center     Atomic                   Forces (Hartrees/Bohr)
 Number     Number              X              Y              Z
 -------------------------------------------------------------------
      1        6          -0.014909953   -0.019057945    0.000257796
      2        7           0.030628296    0.004924298    0.003250013
      3        6           0.003447438   -0.010949542    0.001577306
      4        6          -0.053893341   -0.000077801   -0.006397368
      5        7          -0.001804506   -0.022650422    0.002208399
      6        1           0.008300204    0.014625614   -0.000577723
      7        1           0.005775976    0.015199808   -0.000984508
      8        9           0.036558357   -0.012741858    0.005706140
      9        6          -0.036640844   -0.012227691   -0.003271573
     10        8           0.076134556    0.010199338    0.008178102
     11        1          -0.032086710    0.012657234   -0.005296176
     12        8          -0.027977773    0.050870336   -0.008825329
     13        1           0.001673642   -0.031339410    0.003534249
     14        8          -0.002945169    0.001570092    0.000759395
     15        1           0.001797788    0.000204774   -0.003588021
     16        1           0.002312376   -0.002816964    0.002086202
     17        8           0.000252260   -0.000696757   -0.002082291
     18        1           0.003916457   -0.003583031   -0.001136391
     19        1          -0.000539054    0.005889927    0.004601778
 -------------------------------------------------------------------
 Cartesian Forces:  Max     0.076134556 RMS     0.018968641

 GradGradGradGradGradGradGradGradGradGradGradGradGradGradGradGradGradGrad
 Berny optimization.
 Internal  Forces:  Max     0.051323934 RMS     0.012279523
 Search for a local minimum.
 Step number   1 out of a maximum of   86
 All quantities printed in internal units (Hartrees-Bohrs-Radians)
 Mixed Optimization -- RFO/linear search
 Second derivative matrix not updated -- first step.
     Eigenvalues ---    0.00230   0.00230   0.00729   0.00746   0.01435
     Eigenvalues ---    0.01494   0.01641   0.01736   0.01767   0.01942
     Eigenvalues ---    0.01975   0.02019   0.02145   0.02182   0.02214
     Eigenvalues ---    0.02327   0.04270   0.05560   0.15984   0.16000
     Eigenvalues ---    0.16000   0.16000   0.16000   0.16000   0.16000
     Eigenvalues ---    0.16000   0.22485   0.24467   0.25000   0.25000
     Eigenvalues ---    0.25000   0.25000   0.25000   0.25000   0.35464
     Eigenvalues ---    0.36879   0.44036   0.45207   0.45705   0.49396
     Eigenvalues ---    0.49686   0.51533   0.51806   0.52839   0.53289
     Eigenvalues ---    0.53530   0.54453   0.54919   0.55538   0.55692
     Eigenvalues ---    0.557081000.000001000.000001000.000001000.00000
     Eigenvalues --- 1000.000001000.000001000.000001000.000001000.00000
     Eigenvalues --- 1000.000001000.000001000.000001000.000001000.00000
     Eigenvalues --- 1000.000001000.000001000.000001000.000001000.00000
     Eigenvalues --- 1000.000001000.000001000.000001000.000001000.00000
     Eigenvalues --- 1000.00000
 RFO step:  Lambda=-2.82854700D-02 EMin= 2.30000000D-03
 Linear search not attempted -- first point.
 Iteration  1 RMS(Cart)=  0.06174522 RMS(Int)=  0.00152467
 Iteration  2 RMS(Cart)=  0.00201021 RMS(Int)=  0.00011611
 Iteration  3 RMS(Cart)=  0.00000252 RMS(Int)=  0.00011610
 Iteration  4 RMS(Cart)=  0.00000000 RMS(Int)=  0.00011610
 Variable       Old X    -DE/DX   Delta X   Delta X   Delta X     New X
                                 (Linear)    (Quad)   (Total)
    R1        2.64005   0.00030   0.00000   0.00050   0.00073   2.64079
    R2        2.57529  -0.00211   0.00000  -0.00534  -0.00517   2.57013
    R3        2.57104  -0.03132   0.00000  -0.05627  -0.05627   2.51478
    R4        2.63850   0.00176   0.00000   0.00512   0.00518   2.64367
    R5        1.91165   0.01414   0.00000   0.02912   0.02912   1.94078
    R6        2.56178   0.02371   0.00000   0.04329   0.04312   2.60490
    R7        2.04928   0.01192   0.00000   0.03114   0.03114   2.08042
    R8        2.60480  -0.03910   0.00000  -0.07487  -0.07487   2.52993
    R9        2.74335   0.00290   0.00000   0.00730   0.00707   2.75043
   R10        2.57803  -0.00849   0.00000  -0.01690  -0.01695   2.56108
   R11        2.58085  -0.05132   0.00000  -0.09394  -0.09394   2.48691
   R12        1.83162   0.03054   0.00000   0.05419   0.05419   1.88581
   R13        3.49970  -0.00479   0.00000  -0.05704  -0.05704   3.44265
   R14        1.81904   0.03158   0.00000   0.05468   0.05468   1.87372
   R15        1.81208   0.00091   0.00000   0.00156   0.00156   1.81364
   R16        1.81223   0.00106   0.00000   0.00180   0.00180   1.81403
   R17        3.78913  -0.00172   0.00000  -0.02430  -0.02430   3.76483
   R18        1.81357   0.00020   0.00000   0.00034   0.00034   1.81392
   R19        1.82321   0.00457   0.00000   0.00798   0.00798   1.83119
    A1        2.08241   0.02423   0.00000   0.08494   0.08532   2.16773
    A2        2.11377  -0.02565   0.00000  -0.09109  -0.09128   2.02249
    A3        2.08700   0.00141   0.00000   0.00615   0.00596   2.09296
    A4        2.13193  -0.01723   0.00000  -0.06519  -0.06492   2.06701
    A5        2.02307   0.01635   0.00000   0.07370   0.07356   2.09663
    A6        2.12819   0.00087   0.00000  -0.00850  -0.00864   2.11954
    A7        2.03501   0.00346   0.00000   0.02195   0.02182   2.05683
    A8        2.16179  -0.01389   0.00000  -0.07559  -0.07552   2.08627
    A9        2.08638   0.01044   0.00000   0.05364   0.05370   2.14009
   A10        2.05725   0.00486   0.00000   0.01521   0.01542   2.07267
   A11        2.14731  -0.00555   0.00000  -0.01547  -0.01587   2.13144
   A12        2.07862   0.00069   0.00000   0.00025   0.00045   2.07908
   A13        2.13092  -0.01240   0.00000  -0.05152  -0.05136   2.07957
   A14        2.03879   0.00748   0.00000   0.02529   0.02500   2.06379
   A15        2.13582   0.01636   0.00000   0.05961   0.05975   2.19557
   A16        2.10858  -0.02385   0.00000  -0.08489  -0.08475   2.02383
   A17        2.00956  -0.00542   0.00000  -0.02876  -0.02876   1.98080
   A18        2.86127   0.00000   0.00000   0.00001   0.00001   2.86128
   A19        1.95329  -0.00114   0.00000  -0.00604  -0.00604   1.94724
   A20        1.81714   0.00479   0.00000   0.02629   0.02629   1.84343
   A21        2.22919  -0.00230   0.00000  -0.01140  -0.01140   2.21779
   A22        2.19904  -0.00258   0.00000  -0.01289  -0.01289   2.18616
   A23        2.28184  -0.00427   0.00000  -0.02305  -0.02311   2.25872
   A24        2.19006  -0.00133   0.00000  -0.00748  -0.00755   2.18252
   A25        1.80856   0.00554   0.00000   0.02906   0.02899   1.83755
   A26        2.96854  -0.00079   0.00000  -0.00285  -0.00285   2.96569
    D1        0.00005   0.00001   0.00000   0.00013   0.00013   0.00017
    D2        3.14005   0.00004   0.00000   0.00100   0.00101   3.14107
    D3       -3.14101  -0.00003   0.00000  -0.00055  -0.00055  -3.14155
    D4       -0.00100   0.00001   0.00000   0.00033   0.00034  -0.00066
    D5       -0.00015   0.00000   0.00000  -0.00003  -0.00003  -0.00018
    D6        3.14091   0.00002   0.00000   0.00061   0.00064   3.14155
    D7        3.14111   0.00004   0.00000   0.00067   0.00065  -3.14143
    D8        0.00005   0.00000   0.00000  -0.00003  -0.00002   0.00004
    D9        0.00030   0.00000   0.00000  -0.00002  -0.00002   0.00028
   D10       -3.14147   0.00003   0.00000   0.00054   0.00052  -3.14095
   D11       -3.13961  -0.00005   0.00000  -0.00101  -0.00099  -3.14060
   D12        0.00180  -0.00002   0.00000  -0.00046  -0.00045   0.00135
   D13        3.14080   0.00004   0.00000   0.00073   0.00074   3.14154
   D14       -0.00055  -0.00001   0.00000  -0.00018  -0.00017  -0.00072
   D15       -0.00063   0.00001   0.00000   0.00021   0.00020  -0.00042
   D16        3.14121  -0.00003   0.00000  -0.00070  -0.00071   3.14050
   D17        0.00046   0.00001   0.00000   0.00027   0.00027   0.00072
   D18       -3.14106   0.00004   0.00000   0.00088   0.00090  -3.14016
   D19       -3.14089  -0.00003   0.00000  -0.00065  -0.00066  -3.14155
   D20        0.00078   0.00000   0.00000  -0.00004  -0.00002   0.00075
   D21       -0.00008  -0.00001   0.00000  -0.00017  -0.00017  -0.00025
   D22        3.14144  -0.00004   0.00000  -0.00076  -0.00074   3.14070
   D23        0.00237  -0.00004   0.00000  -0.00093  -0.00092   0.00145
   D24       -3.13915  -0.00002   0.00000  -0.00030  -0.00031  -3.13945
   D25        3.13399  -0.00038   0.00000  -0.00902  -0.00902   3.12497
   D26       -0.60916   0.00021   0.00000   0.00715   0.00702  -0.60214
   D27        2.43976  -0.00049   0.00000  -0.01633  -0.01620   2.42356
   D28       -1.50282  -0.00024   0.00000  -0.00660  -0.00660  -1.50942
   D29        1.29947   0.00024   0.00000   0.00674   0.00674   1.30621
   D30       -2.78499   0.00044   0.00000   0.00972   0.00988  -2.77511
   D31        0.28439  -0.00047   0.00000  -0.01049  -0.01065   0.27374
         Item               Value     Threshold  Converged?
 Maximum Force            0.051324     0.000450     NO 
 RMS     Force            0.012280     0.000300     NO 
 Maximum Displacement     0.236708     0.001800     NO 
 RMS     Displacement     0.062049     0.001200     NO 
 Predicted change in Energy=-1.533780D-02
 GradGradGradGradGradGradGradGradGradGradGradGradGradGradGradGradGradGrad

                          Input orientation:                          
 ---------------------------------------------------------------------
 Center     Atomic      Atomic             Coordinates (Angstroms)
 Number     Number       Type             X           Y           Z
 ---------------------------------------------------------------------
      1          6           0        2.746904   -0.140161    0.173980
      2          7           0        2.534472    1.228033   -0.015142
      3          6           0        1.226712    1.675381   -0.231395
      4          6           0        0.218593    0.735356   -0.245021
      5          7           0        1.759995   -1.075900    0.161943
      6          1           0        1.038671    2.749445   -0.383139
      7          1           0        3.327168    1.880654    0.006761
      8          9           0       -1.039819    1.143474   -0.450389
      9          6           0        0.479650   -0.682391   -0.044489
     10          8           0       -0.424054   -1.639062   -0.044730
     11          1           0       -1.352657   -1.309037   -0.201695
     12          8           0        4.009399   -0.509587    0.375373
     13          1           0        4.086617   -1.490040    0.501388
     14          8           0       -5.170952    0.641532    0.662686
     15          1           0       -5.734155    1.242779    0.170349
     16          1           0       -5.598106    0.526417    1.514612
     17          8           0       -3.154175   -1.202930   -0.450964
     18          1           0       -3.745705   -1.817196   -0.891584
     19          1           0       -3.729903   -0.523976   -0.068120
 ---------------------------------------------------------------------
                    Distance matrix (angstroms):
                    1          2          3          4          5
     1  C    0.000000
     2  N    1.397444   0.000000
     3  C    2.402396   1.398972   0.000000
     4  C    2.708219   2.378838   1.378455   0.000000
     5  N    1.360052   2.437064   2.829956   2.412921   0.000000
     6  H    3.402685   2.165072   1.100909   2.179027   3.930736
     7  H    2.109113   1.027015   2.123858   3.322400   3.349824
     8  F    4.046829   3.601686   2.338385   1.338781   3.624848
     9  C    2.341406   2.805864   2.480348   1.455463   1.355266
    10  O    3.514188   4.119950   3.707480   2.467989   2.264937
    11  H    4.279463   4.645568   3.944715   2.578807   3.142481
    12  O    1.330763   2.312409   3.589652   4.037943   2.329395
    13  H    1.929819   3.172362   4.328501   4.524503   2.387447
    14  O    7.971344   7.757384   6.542043   5.466254   7.158096
    15  H    8.593073   8.270720   6.985858   5.988757   7.844656
    16  H    8.478255   8.304892   7.137702   6.080620   7.651064
    17  O    6.028496   6.201631   5.246432   3.895500   4.953873
    18  H    6.789834   7.034358   6.112190   4.759120   5.654394
    19  H    6.492685   6.504978   5.425114   4.148232   5.522366
                    6          7          8          9         10
     6  H    0.000000
     7  H    2.478718   0.000000
     8  F    2.627505   4.452302   0.000000
     9  C    3.493521   3.831473   2.409839   0.000000
    10  O    4.638220   5.144193   2.878581   1.316017   0.000000
    11  H    4.714091   5.667305   2.484859   1.942871   0.997926
    12  O    4.474580   2.512880   5.376718   3.558830   4.594313
    13  H    5.295810   3.490414   5.841371   3.736373   4.546054
    14  O    6.640517   8.612997   4.307801   5.846553   5.313623
    15  H    6.960428   9.085220   4.736240   6.508749   6.045530
    16  H    7.251904   9.152491   5.001997   6.389924   5.821654
    17  O    5.762449   7.192066   3.158498   3.693354   2.794422
    18  H    6.633474   8.031603   4.035101   4.456342   3.432529
    19  H    5.792566   7.455878   3.187958   4.212600   3.488925
                   11         12         13         14         15
    11  H    0.000000
    12  O    5.451951   0.000000
    13  H    5.487512   0.991529   0.000000
    14  O    4.373929   9.256699   9.501168   0.000000
    15  H    5.084064   9.902003  10.199286   0.959735   0.000000
    16  H    4.933400   9.730124   9.944172   0.959942   1.529290
    17  O    1.821774   7.244332   7.308794   2.951211   3.608853
    18  H    2.541820   7.965969   7.961951   3.239202   3.800669
    19  H    2.507082   7.752012   7.896556   1.992262   2.682409
                   16         17         18         19
    16  H    0.000000
    17  O    3.581470   0.000000
    18  H    3.835843   0.959884   0.000000
    19  H    2.664310   0.969026   1.533219   0.000000
 Stoichiometry    C4H8FN2O4(1+)
 Framework group  C1[X(C4H8FN2O4)]
 Deg. of freedom    51
 Full point group                 C1      NOp   1
 Largest Abelian subgroup         C1      NOp   1
 Largest concise Abelian subgroup C1      NOp   1
                         Standard orientation:                         
 ---------------------------------------------------------------------
 Center     Atomic      Atomic             Coordinates (Angstroms)
 Number     Number       Type             X           Y           Z
 ---------------------------------------------------------------------
      1          6           0        2.755948   -0.164441    0.177647
      2          7           0        2.551982    1.207541    0.007604
      3          6           0        1.247272    1.665716   -0.204357
      4          6           0        0.233598    0.732020   -0.232905
      5          7           0        1.763507   -1.094000    0.150781
      6          1           0        1.065882    2.742927   -0.341156
      7          1           0        3.348513    1.855035    0.040013
      8          9           0       -1.022017    1.150521   -0.434460
      9          6           0        0.485874   -0.689961   -0.052079
     10          8           0       -0.423509   -1.641113   -0.067315
     11          1           0       -1.349867   -1.303353   -0.221057
     12          8           0        4.015884   -0.544223    0.375782
     13          1           0        4.087052   -1.526806    0.488007
     14          8           0       -5.157918    0.657561    0.664840
     15          1           0       -5.716708    1.269079    0.180185
     16          1           0       -5.587170    0.532944    1.514371
     17          8           0       -3.150302   -1.182959   -0.471650
     18          1           0       -3.744743   -1.787375   -0.921871
     19          1           0       -3.722616   -0.506069   -0.080132
 ---------------------------------------------------------------------
 Rotational constants (GHZ):      2.2194201      0.4017438      0.3505519
 Standard basis: VSTO-6G (5D, 7F)
 There are    52 symmetry adapted basis functions of A   symmetry.
 Integral buffers will be    131072 words long.
 Regular integral format.
 Two-electron integral symmetry is turned off.
    52 basis functions,   312 primitive gaussians,    52 cartesian basis functions
    32 alpha electrons       32 beta electrons
       nuclear repulsion energy       399.9925011370 Hartrees.
 Do NDO integrals.
 One-electron integrals computed using PRISM.
 NBasis=    52 RedAO= F  NBF=    52
 NBsUse=    52 1.00D-04 NBFU=    52
 Initial guess read from the read-write file.
 B after Tr=     0.000000    0.000000    0.000000
         Rot=    1.000000    0.000000    0.000000    0.000000 Ang=   0.00 deg.
 Initial guess orbital symmetries:
       Occupied  (A) (A) (A) (A) (A) (A) (A) (A) (A) (A) (A) (A)
                 (A) (A) (A) (A) (A) (A) (A) (A) (A) (A) (A) (A)
                 (A) (A) (A) (A) (A) (A) (A) (A)
       Virtual   (A) (A) (A) (A) (A) (A) (A) (A) (A) (A) (A) (A)
                 (A) (A) (A) (A) (A) (A) (A) (A)
 Requested convergence on RMS density matrix=1.00D-08 within 128 cycles.
 Requested convergence on MAX density matrix=1.00D-06.
 Requested convergence on             energy=1.00D-06.
 No special actions if energy rises.
 Overlap will be assumed to be unity.
 Keep J ints in memory in canonical form, NReq=892846.
 SCF Done:  E(RPM6) = -0.810623342177E-01 A.U. after   14 cycles
             Convg  =    0.5824D-08             -V/T =  0.9995
 Calling FoFJK, ICntrl=      2127 FMM=F ISym2X=0 I1Cent= 0 IOpClX= 0 NMat=1 NMatS=1 NMatT=0.
 ***** Axes restored to original set *****
 -------------------------------------------------------------------
 Center     Atomic                   Forces (Hartrees/Bohr)
 Number     Number              X              Y              Z
 -------------------------------------------------------------------
      1        6          -0.006526829   -0.005075917   -0.000232018
      2        7           0.005809939    0.001604525    0.000598343
      3        6          -0.008182616   -0.011715219    0.000346431
      4        6          -0.007615112    0.012144265   -0.002357654
      5        7           0.014437681   -0.006673902    0.002628955
      6        1           0.002299797    0.003001113   -0.000069889
      7        1           0.002270189    0.003400017   -0.000167149
      8        9           0.009530370   -0.003445544    0.001593537
      9        6          -0.017150386    0.004568527   -0.002853092
     10        8           0.025485132   -0.003570346    0.003662282
     11        1          -0.029092990    0.003243984   -0.004057420
     12        8          -0.001431887    0.022076157   -0.002786730
     13        1           0.004489241   -0.020142181    0.002940061
     14        8          -0.001791690    0.000819311    0.000468280
     15        1           0.001505233   -0.000774127   -0.000938314
     16        1           0.001577199   -0.001163613   -0.000299577
     17        8           0.001885816   -0.000138072   -0.001432445
     18        1           0.003274938   -0.001040907    0.000341799
     19        1          -0.000774023    0.002881929    0.002614599
 -------------------------------------------------------------------
 Cartesian Forces:  Max     0.029092990 RMS     0.008127898

 GradGradGradGradGradGradGradGradGradGradGradGradGradGradGradGradGradGrad
 Berny optimization.
 Using GEDIIS/GDIIS optimizer.
 Internal  Forces:  Max     0.023574563 RMS     0.004873659
 Search for a local minimum.
 Step number   2 out of a maximum of   86
 All quantities printed in internal units (Hartrees-Bohrs-Radians)
 Mixed Optimization -- RFO/linear search
 Update second derivatives using D2CorX and points    1    2
 DE= -1.73D-02 DEPred=-1.53D-02 R= 1.13D+00
 SS=  1.41D+00  RLast= 2.91D-01 DXNew= 5.0454D-01 8.7161D-01
 Trust test= 1.13D+00 RLast= 2.91D-01 DXMaxT set to 5.05D-01
 Use linear search instead of GDIIS.
     Eigenvalues ---    0.00230   0.00230   0.00732   0.00759   0.01435
     Eigenvalues ---    0.01494   0.01633   0.01736   0.01750   0.01947
     Eigenvalues ---    0.01973   0.02021   0.02145   0.02207   0.02214
     Eigenvalues ---    0.02339   0.04257   0.05424   0.14607   0.15978
     Eigenvalues ---    0.16000   0.16000   0.16000   0.16000   0.16000
     Eigenvalues ---    0.16741   0.21387   0.23463   0.24742   0.25000
     Eigenvalues ---    0.25000   0.25000   0.25000   0.25737   0.35222
     Eigenvalues ---    0.36770   0.42234   0.44180   0.45187   0.46074
     Eigenvalues ---    0.50269   0.50332   0.51989   0.52516   0.53203
     Eigenvalues ---    0.54378   0.54469   0.55531   0.55686   0.55705
     Eigenvalues ---    0.647741000.000001000.000001000.000001000.00000
     Eigenvalues --- 1000.000001000.000001000.000001000.000001000.00000
     Eigenvalues --- 1000.000001000.000001000.000001000.000001000.00000
     Eigenvalues --- 1000.000001000.000001000.000001000.000001000.00000
     Eigenvalues --- 1000.000001000.000001000.000001000.000001000.00000
     Eigenvalues --- 1000.00000
 RFO step:  Lambda=-5.43978292D-03 EMin= 2.29998577D-03
 Quartic linear search produced a step of  0.23583.
 Iteration  1 RMS(Cart)=  0.12179134 RMS(Int)=  0.00242518
 Iteration  2 RMS(Cart)=  0.00503152 RMS(Int)=  0.00015346
 Iteration  3 RMS(Cart)=  0.00001107 RMS(Int)=  0.00015330
 Iteration  4 RMS(Cart)=  0.00000000 RMS(Int)=  0.00015330
 Variable       Old X    -DE/DX   Delta X   Delta X   Delta X     New X
                                 (Linear)    (Quad)   (Total)
    R1        2.64079   0.00150   0.00017   0.00370   0.00395   2.64473
    R2        2.57013  -0.00061  -0.00122  -0.00015  -0.00132   2.56881
    R3        2.51478   0.00239  -0.01327   0.00926  -0.00401   2.51077
    R4        2.64367   0.00330   0.00122   0.00696   0.00821   2.65189
    R5        1.94078   0.00391   0.00687   0.00836   0.01523   1.95601
    R6        2.60490  -0.00500   0.01017  -0.01508  -0.00495   2.59995
    R7        2.08042   0.00254   0.00734   0.00629   0.01363   2.09405
    R8        2.52993  -0.01025  -0.01766  -0.02016  -0.03781   2.49212
    R9        2.75043   0.00274   0.00167   0.00855   0.01015   2.76057
   R10        2.56108   0.01642  -0.00400   0.04073   0.03670   2.59778
   R11        2.48691  -0.00161  -0.02215   0.00253  -0.01962   2.46729
   R12        1.88581   0.02357   0.01278   0.05005   0.06283   1.94864
   R13        3.44265  -0.00568  -0.01345  -0.10113  -0.11459   3.32807
   R14        1.87372   0.02064   0.01289   0.04219   0.05509   1.92881
   R15        1.81364  -0.00089   0.00037  -0.00204  -0.00168   1.81196
   R16        1.81403  -0.00083   0.00043  -0.00193  -0.00151   1.81252
   R17        3.76483  -0.00187  -0.00573  -0.04083  -0.04656   3.71827
   R18        1.81392  -0.00151   0.00008  -0.00333  -0.00325   1.81066
   R19        1.83119   0.00166   0.00188   0.00318   0.00506   1.83626
    A1        2.16773   0.00094   0.02012  -0.00244   0.01780   2.18553
    A2        2.02249  -0.00662  -0.02153  -0.02401  -0.04560   1.97690
    A3        2.09296   0.00568   0.00141   0.02645   0.02780   2.12076
    A4        2.06701  -0.00105  -0.01531  -0.00377  -0.01897   2.04804
    A5        2.09663   0.00170   0.01735   0.00586   0.02315   2.11978
    A6        2.11954  -0.00065  -0.00204  -0.00209  -0.00418   2.11536
    A7        2.05683   0.00517   0.00515   0.02022   0.02535   2.08218
    A8        2.08627  -0.00550  -0.01781  -0.02430  -0.04211   2.04417
    A9        2.14009   0.00032   0.01266   0.00408   0.01675   2.15684
   A10        2.07267   0.00158   0.00364   0.00724   0.01094   2.08360
   A11        2.13144  -0.00231  -0.00374  -0.01171  -0.01558   2.11586
   A12        2.07908   0.00073   0.00011   0.00447   0.00464   2.08372
   A13        2.07957  -0.00258  -0.01211  -0.00184  -0.01394   2.06563
   A14        2.06379  -0.00018   0.00590  -0.00045   0.00533   2.06913
   A15        2.19557   0.00568   0.01409   0.02064   0.03479   2.23036
   A16        2.02383  -0.00551  -0.01999  -0.02019  -0.04012   1.98370
   A17        1.98080   0.00779  -0.00678   0.06124   0.05445   2.03525
   A18        2.86128   0.00023   0.00000   0.00109   0.00109   2.86238
   A19        1.94724   0.00546  -0.00143   0.04128   0.03985   1.98710
   A20        1.84343   0.00212   0.00620   0.01141   0.01755   1.86098
   A21        2.21779  -0.00103  -0.00269  -0.00763  -0.01038   2.20741
   A22        2.18616  -0.00118  -0.00304  -0.00861  -0.01170   2.17446
   A23        2.25872  -0.00278  -0.00545  -0.01945  -0.02542   2.23330
   A24        2.18252  -0.00009  -0.00178  -0.00133  -0.00368   2.17884
   A25        1.83755   0.00279   0.00684   0.01591   0.02215   1.85969
   A26        2.96569  -0.00071  -0.00067  -0.00314  -0.00382   2.96188
    D1        0.00017   0.00000   0.00003  -0.00003   0.00000   0.00017
    D2        3.14107   0.00002   0.00024   0.00065   0.00090  -3.14121
    D3       -3.14155   0.00000  -0.00013   0.00004  -0.00009   3.14154
    D4       -0.00066   0.00002   0.00008   0.00073   0.00082   0.00016
    D5       -0.00018   0.00001  -0.00001   0.00033   0.00032   0.00014
    D6        3.14155   0.00001   0.00015   0.00026   0.00042  -3.14121
    D7       -3.14143   0.00001   0.00015   0.00024   0.00039  -3.14104
    D8        0.00004   0.00001   0.00000   0.00031   0.00031   0.00034
    D9        0.00028   0.00000   0.00000   0.00008   0.00008   0.00036
   D10       -3.14095   0.00000   0.00012  -0.00005   0.00007  -3.14088
   D11       -3.14060  -0.00002  -0.00023  -0.00062  -0.00084  -3.14144
   D12        0.00135  -0.00002  -0.00011  -0.00074  -0.00084   0.00051
   D13        3.14154   0.00001   0.00018  -0.00001   0.00017  -3.14147
   D14       -0.00072  -0.00001  -0.00004  -0.00041  -0.00044  -0.00117
   D15       -0.00042   0.00000   0.00005   0.00011   0.00016  -0.00026
   D16        3.14050  -0.00001  -0.00017  -0.00028  -0.00045   3.14005
   D17        0.00072   0.00002   0.00006   0.00069   0.00075   0.00147
   D18       -3.14016   0.00002   0.00021   0.00075   0.00096  -3.13920
   D19       -3.14155   0.00000  -0.00015   0.00029   0.00014  -3.14141
   D20        0.00075   0.00001  -0.00001   0.00035   0.00035   0.00111
   D21       -0.00025  -0.00002  -0.00004  -0.00063  -0.00067  -0.00092
   D22        3.14070  -0.00002  -0.00017  -0.00067  -0.00083   3.13987
   D23        0.00145  -0.00002  -0.00022  -0.00031  -0.00053   0.00092
   D24       -3.13945  -0.00001  -0.00007  -0.00026  -0.00034  -3.13979
   D25        3.12497  -0.00038  -0.00213  -0.01765  -0.01977   3.10520
   D26       -0.60214   0.00026   0.00165   0.01780   0.01903  -0.58311
   D27        2.42356  -0.00052  -0.00382  -0.04515  -0.04854   2.37502
   D28       -1.50942   0.00002  -0.00156   0.00772   0.00615  -1.50327
   D29        1.30621  -0.00005   0.00159  -0.01181  -0.01020   1.29601
   D30       -2.77511   0.00043   0.00233   0.02466   0.02743  -2.74768
   D31        0.27374  -0.00048  -0.00251  -0.02752  -0.03046   0.24328
         Item               Value     Threshold  Converged?
 Maximum Force            0.023575     0.000450     NO 
 RMS     Force            0.004874     0.000300     NO 
 Maximum Displacement     0.380352     0.001800     NO 
 RMS     Displacement     0.120040     0.001200     NO 
 Predicted change in Energy=-3.656056D-03
 GradGradGradGradGradGradGradGradGradGradGradGradGradGradGradGradGradGrad

                          Input orientation:                          
 ---------------------------------------------------------------------
 Center     Atomic      Atomic             Coordinates (Angstroms)
 Number     Number       Type             X           Y           Z
 ---------------------------------------------------------------------
      1          6           0        2.739979   -0.174836    0.188620
      2          7           0        2.618869    1.201479   -0.034490
      3          6           0        1.331504    1.704194   -0.277944
      4          6           0        0.261481    0.839386   -0.286636
      5          7           0        1.710654   -1.062717    0.188075
      6          1           0        1.239944    2.794274   -0.454804
      7          1           0        3.444550    1.825539   -0.021114
      8          9           0       -0.949011    1.310066   -0.515387
      9          6           0        0.441468   -0.590669   -0.048780
     10          8           0       -0.475164   -1.520252   -0.030423
     11          1           0       -1.444956   -1.216170   -0.204660
     12          8           0        3.991364   -0.562537    0.410000
     13          1           0        4.090040   -1.565214    0.573374
     14          8           0       -5.266806    0.530184    0.696938
     15          1           0       -5.863889    1.102296    0.211584
     16          1           0       -5.676246    0.365341    1.548493
     17          8           0       -3.187151   -1.177479   -0.459340
     18          1           0       -3.735345   -1.837980   -0.885131
     19          1           0       -3.792630   -0.532115   -0.057954
 ---------------------------------------------------------------------
                    Distance matrix (angstroms):
                    1          2          3          4          5
     1  C    0.000000
     2  N    1.399532   0.000000
     3  C    2.394209   1.403318   0.000000
     4  C    2.719829   2.398326   1.375833   0.000000
     5  N    1.359354   2.449689   2.831382   2.437919   0.000000
     6  H    3.388173   2.148277   1.108123   2.192546   3.938431
     7  H    2.131176   1.035074   2.132053   3.342892   3.375231
     8  F    4.038466   3.601781   2.326471   1.318772   3.633012
     9  C    2.347856   2.820120   2.472059   1.460832   1.374686
    10  O    3.492172   4.120786   3.704371   2.485192   2.243853
    11  H    4.330442   4.731666   4.030214   2.672818   3.183655
    12  O    1.328640   2.278830   3.561768   4.045085   2.345436
    13  H    1.975816   3.191932   4.361569   4.602127   2.462201
    14  O    8.053822   7.947924   6.772473   5.623609   7.175041
    15  H    8.698169   8.486906   7.237099   6.151220   7.877914
    16  H    8.542476   8.486101   7.364575   6.232899   7.645678
    17  O    6.046157   6.288864   5.362386   3.998829   4.941742
    18  H    6.771175   7.094924   6.211975   4.847794   5.604615
    19  H    6.547016   6.641778   5.595196   4.285921   5.534275
                    6          7          8          9         10
     6  H    0.000000
     7  H    2.446798   0.000000
     8  F    2.645386   4.451224   0.000000
     9  C    3.501465   3.854521   2.400823   0.000000
    10  O    4.662277   5.153500   2.910398   1.305632   0.000000
    11  H    4.832693   5.761333   2.593141   1.993526   1.031175
    12  O    4.425650   2.487523   5.363794   3.579529   4.589233
    13  H    5.308985   3.502468   5.902937   3.827386   4.605179
    14  O    6.985013   8.836360   4.552065   5.864879   5.262430
    15  H    7.332892   9.339393   4.972693   6.533870   5.997890
    16  H    7.599119   9.369353   5.243936   6.394660   5.753234
    17  O    5.947606   7.293121   3.346684   3.698619   2.767009
    18  H    6.811495   8.106713   4.220256   4.438585   3.385300
    19  H    6.045589   7.611613   3.418924   4.234513   3.461611
                   11         12         13         14         15
    11  H    0.000000
    12  O    5.509866   0.000000
    13  H    5.600299   1.020681   0.000000
    14  O    4.297577   9.326847   9.589396   0.000000
    15  H    5.007546   9.996852  10.311508   0.958848   0.000000
    16  H    4.845466   9.778539  10.002912   0.959146   1.538064
    17  O    1.761137   7.257065   7.360322   2.928832   3.579447
    18  H    2.468921   7.937642   7.964815   3.233654   3.791927
    19  H    2.449699   7.798106   7.975108   1.967622   2.652181
                   16         17         18         19
    16  H    0.000000
    17  O    3.550674   0.000000
    18  H    3.813692   0.958163   0.000000
    19  H    2.633270   0.971705   1.546864   0.000000
 Stoichiometry    C4H8FN2O4(1+)
 Framework group  C1[X(C4H8FN2O4)]
 Deg. of freedom    51
 Full point group                 C1      NOp   1
 Largest Abelian subgroup         C1      NOp   1
 Largest concise Abelian subgroup C1      NOp   1
                         Standard orientation:                         
 ---------------------------------------------------------------------
 Center     Atomic      Atomic             Coordinates (Angstroms)
 Number     Number       Type             X           Y           Z
 ---------------------------------------------------------------------
      1          6           0        2.744962   -0.260796    0.190018
      2          7           0        2.647481    1.128054    0.047602
      3          6           0        1.369575    1.665606   -0.169871
      4          6           0        0.285467    0.820795   -0.232487
      5          7           0        1.701133   -1.129795    0.134306
      6          1           0        1.296729    2.765550   -0.282806
      7          1           0        3.483289    1.736374    0.100041
      8          9           0       -0.916165    1.324226   -0.436927
      9          6           0        0.440871   -0.623543   -0.078321
     10          8           0       -0.491046   -1.537157   -0.117267
     11          1           0       -1.454980   -1.207229   -0.276321
     12          8           0        3.988880   -0.681654    0.392088
     13          1           0        4.070337   -1.693686    0.496705
     14          8           0       -5.251068    0.546958    0.714493
     15          1           0       -5.836677    1.156408    0.261699
     16          1           0       -5.666584    0.339397    1.553675
     17          8           0       -3.195265   -1.124581   -0.533581
     18          1           0       -3.752575   -1.749761   -0.999017
     19          1           0       -3.791613   -0.493800   -0.096894
 ---------------------------------------------------------------------
 Rotational constants (GHZ):      2.1906520      0.3930646      0.3444884
 Standard basis: VSTO-6G (5D, 7F)
 There are    52 symmetry adapted basis functions of A   symmetry.
 Integral buffers will be    131072 words long.
 Regular integral format.
 Two-electron integral symmetry is turned off.
    52 basis functions,   312 primitive gaussians,    52 cartesian basis functions
    32 alpha electrons       32 beta electrons
       nuclear repulsion energy       398.5779532983 Hartrees.
 Do NDO integrals.
 One-electron integrals computed using PRISM.
 NBasis=    52 RedAO= F  NBF=    52
 NBsUse=    52 1.00D-04 NBFU=    52
 Initial guess read from the read-write file.
 B after Tr=     0.000000    0.000000    0.000000
         Rot=    1.000000    0.000000    0.000000    0.000000 Ang=   0.00 deg.
 Initial guess orbital symmetries:
       Occupied  (A) (A) (A) (A) (A) (A) (A) (A) (A) (A) (A) (A)
                 (A) (A) (A) (A) (A) (A) (A) (A) (A) (A) (A) (A)
                 (A) (A) (A) (A) (A) (A) (A) (A)
       Virtual   (A) (A) (A) (A) (A) (A) (A) (A) (A) (A) (A) (A)
                 (A) (A) (A) (A) (A) (A) (A) (A)
 Requested convergence on RMS density matrix=1.00D-08 within 128 cycles.
 Requested convergence on MAX density matrix=1.00D-06.
 Requested convergence on             energy=1.00D-06.
 No special actions if energy rises.
 Overlap will be assumed to be unity.
 Keep J ints in memory in canonical form, NReq=892846.
 SCF Done:  E(RPM6) = -0.850164001222E-01 A.U. after   14 cycles
             Convg  =    0.5626D-08             -V/T =  0.9995
 Calling FoFJK, ICntrl=      2127 FMM=F ISym2X=0 I1Cent= 0 IOpClX= 0 NMat=1 NMatS=1 NMatT=0.
 ***** Axes restored to original set *****
 -------------------------------------------------------------------
 Center     Atomic                   Forces (Hartrees/Bohr)
 Number     Number              X              Y              Z
 -------------------------------------------------------------------
      1        6          -0.001758568   -0.006991356    0.000801208
      2        7          -0.003883562    0.001830518   -0.000745515
      3        6          -0.000768282   -0.002259129    0.000220712
      4        6           0.010489631   -0.001087343    0.001526321
      5        7           0.005347693    0.004213375    0.000091034
      6        1          -0.000485550   -0.000447173    0.000010684
      7        1          -0.000459384   -0.001112149    0.000083005
      8        9          -0.007639796    0.001876723   -0.001260546
      9        6          -0.003794696    0.001682463   -0.000934706
     10        8           0.011192628   -0.003915642    0.002122709
     11        1          -0.016294139    0.004006824   -0.002711136
     12        8           0.003130610    0.006858798   -0.000609052
     13        1          -0.001909770   -0.005542171    0.000578117
     14        8          -0.000692260   -0.000158161    0.000124752
     15        1           0.001155790   -0.000869160    0.000252671
     16        1           0.000939609   -0.000113574   -0.001163760
     17        8           0.003501499    0.000543541   -0.000961913
     18        1           0.002670316    0.000184537    0.000990572
     19        1          -0.000741769    0.001299076    0.001584845
 -------------------------------------------------------------------
 Cartesian Forces:  Max     0.016294139 RMS     0.003924620

 GradGradGradGradGradGradGradGradGradGradGradGradGradGradGradGradGradGrad
 Berny optimization.
 Using GEDIIS/GDIIS optimizer.
 Internal  Forces:  Max     0.010659024 RMS     0.002304339
 Search for a local minimum.
 Step number   3 out of a maximum of   86
 All quantities printed in internal units (Hartrees-Bohrs-Radians)
 Mixed Optimization -- RFO/linear search
 Update second derivatives using D2CorX and points    1    2    3
 DE= -3.95D-03 DEPred=-3.66D-03 R= 1.08D+00
 SS=  1.41D+00  RLast= 2.18D-01 DXNew= 8.4853D-01 6.5415D-01
 Trust test= 1.08D+00 RLast= 2.18D-01 DXMaxT set to 6.54D-01
 Use linear search instead of GDIIS.
     Eigenvalues ---    0.00230   0.00230   0.00806   0.00822   0.01433
     Eigenvalues ---    0.01494   0.01629   0.01736   0.01742   0.01953
     Eigenvalues ---    0.01974   0.02023   0.02145   0.02214   0.02216
     Eigenvalues ---    0.02344   0.03833   0.04580   0.14940   0.15982
     Eigenvalues ---    0.16000   0.16000   0.16000   0.16000   0.16321
     Eigenvalues ---    0.18182   0.22670   0.23443   0.24796   0.25000
     Eigenvalues ---    0.25000   0.25000   0.25413   0.26296   0.34990
     Eigenvalues ---    0.37146   0.38579   0.44201   0.45198   0.45923
     Eigenvalues ---    0.50286   0.51679   0.52408   0.52641   0.54111
     Eigenvalues ---    0.54463   0.55293   0.55635   0.55701   0.57086
     Eigenvalues ---    0.649461000.000001000.000001000.000001000.00000
     Eigenvalues --- 1000.000001000.000001000.000001000.000001000.00000
     Eigenvalues --- 1000.000001000.000001000.000001000.000001000.00000
     Eigenvalues --- 1000.000001000.000001000.000001000.000001000.00000
     Eigenvalues --- 1000.000001000.000001000.000001000.000001000.00000
     Eigenvalues --- 1000.00000
 RFO step:  Lambda=-2.36972459D-03 EMin= 2.29954800D-03
 Quartic linear search produced a step of  0.19577.
 Iteration  1 RMS(Cart)=  0.07447065 RMS(Int)=  0.00245487
 Iteration  2 RMS(Cart)=  0.00274992 RMS(Int)=  0.00044173
 Iteration  3 RMS(Cart)=  0.00001936 RMS(Int)=  0.00044161
 Iteration  4 RMS(Cart)=  0.00000001 RMS(Int)=  0.00044161
 Variable       Old X    -DE/DX   Delta X   Delta X   Delta X     New X
                                 (Linear)    (Quad)   (Total)
    R1        2.64473   0.00150   0.00077   0.00417   0.00495   2.64968
    R2        2.56881  -0.00533  -0.00026  -0.01214  -0.01240   2.55641
    R3        2.51077   0.00076  -0.00079  -0.00355  -0.00433   2.50643
    R4        2.65189  -0.00140   0.00161  -0.00249  -0.00087   2.65101
    R5        1.95601  -0.00104   0.00298   0.00125   0.00423   1.96024
    R6        2.59995  -0.00430  -0.00097  -0.00608  -0.00705   2.59290
    R7        2.09405  -0.00040   0.00267   0.00257   0.00524   2.09929
    R8        2.49212   0.00790  -0.00740   0.00861   0.00121   2.49333
    R9        2.76057  -0.00240   0.00199  -0.00576  -0.00378   2.75679
   R10        2.59778   0.00214   0.00718   0.00671   0.01389   2.61167
   R11        2.46729  -0.00191  -0.00384  -0.01409  -0.01793   2.44936
   R12        1.94864   0.01066   0.01230   0.03324   0.04554   1.99418
   R13        3.32807  -0.00686  -0.02243  -0.15126  -0.17369   3.15437
   R14        1.92881   0.00535   0.01078   0.02087   0.03166   1.96046
   R15        1.81196  -0.00137  -0.00033  -0.00284  -0.00317   1.80879
   R16        1.81252  -0.00141  -0.00029  -0.00291  -0.00320   1.80932
   R17        3.71827  -0.00197  -0.00912  -0.05632  -0.06544   3.65283
   R18        1.81066  -0.00210  -0.00064  -0.00461  -0.00525   1.80542
   R19        1.83626   0.00002   0.00099   0.00119   0.00218   1.83844
    A1        2.18553  -0.00218   0.00348  -0.00109   0.00241   2.18793
    A2        1.97690   0.00142  -0.00893  -0.00532  -0.01425   1.96265
    A3        2.12076   0.00076   0.00544   0.00641   0.01184   2.13261
    A4        2.04804   0.00169  -0.00371   0.00109  -0.00261   2.04543
    A5        2.11978  -0.00145   0.00453  -0.00024   0.00428   2.12407
    A6        2.11536  -0.00024  -0.00082  -0.00085  -0.00167   2.11369
    A7        2.08218  -0.00025   0.00496   0.00186   0.00683   2.08901
    A8        2.04417   0.00067  -0.00824  -0.00497  -0.01321   2.03095
    A9        2.15684  -0.00042   0.00328   0.00311   0.00638   2.16322
   A10        2.08360   0.00135   0.00214   0.00871   0.01085   2.09446
   A11        2.11586  -0.00015  -0.00305  -0.00387  -0.00693   2.10894
   A12        2.08372  -0.00120   0.00091  -0.00484  -0.00393   2.07979
   A13        2.06563   0.00046  -0.00273  -0.00274  -0.00547   2.06016
   A14        2.06913   0.00043   0.00104   0.00475   0.00578   2.07490
   A15        2.23036  -0.00173   0.00681   0.00010   0.00691   2.23727
   A16        1.98370   0.00131  -0.00785  -0.00484  -0.01269   1.97102
   A17        2.03525  -0.00449   0.01066  -0.02955  -0.01889   2.01637
   A18        2.86238   0.00089   0.00021   0.00420   0.00441   2.86679
   A19        1.98710  -0.00474   0.00780  -0.03079  -0.02299   1.96411
   A20        1.86098   0.00062   0.00344   0.00730   0.01068   1.87166
   A21        2.20741  -0.00037  -0.00203  -0.00530  -0.00738   2.20003
   A22        2.17446  -0.00030  -0.00229  -0.00510  -0.00744   2.16701
   A23        2.23330  -0.00189  -0.00498  -0.02179  -0.02869   2.20462
   A24        2.17884   0.00030  -0.00072  -0.00307  -0.00582   2.17302
   A25        1.85969   0.00146   0.00434   0.01041   0.01259   1.87228
   A26        2.96188  -0.00058  -0.00075  -0.00323  -0.00398   2.95790
    D1        0.00017   0.00000   0.00000   0.00012   0.00012   0.00029
    D2       -3.14121   0.00001   0.00018   0.00064   0.00082  -3.14040
    D3        3.14154   0.00000  -0.00002   0.00020   0.00018  -3.14146
    D4        0.00016   0.00001   0.00016   0.00072   0.00088   0.00104
    D5        0.00014   0.00001   0.00006   0.00032   0.00038   0.00052
    D6       -3.14121   0.00000   0.00008   0.00023   0.00031  -3.14090
    D7       -3.14104   0.00000   0.00008   0.00020   0.00028  -3.14076
    D8        0.00034   0.00001   0.00006   0.00028   0.00034   0.00069
    D9        0.00036   0.00000   0.00001  -0.00011  -0.00009   0.00026
   D10       -3.14088   0.00000   0.00001  -0.00029  -0.00028  -3.14116
   D11       -3.14144  -0.00001  -0.00016  -0.00063  -0.00079   3.14096
   D12        0.00051  -0.00001  -0.00016  -0.00081  -0.00097  -0.00047
   D13       -3.14147  -0.00001   0.00003  -0.00038  -0.00034   3.14137
   D14       -0.00117   0.00000  -0.00009  -0.00031  -0.00040  -0.00156
   D15       -0.00026   0.00000   0.00003  -0.00018  -0.00015  -0.00041
   D16        3.14005   0.00000  -0.00009  -0.00012  -0.00020   3.13984
   D17        0.00147   0.00001   0.00015   0.00075   0.00090   0.00237
   D18       -3.13920   0.00001   0.00019   0.00077   0.00096  -3.13824
   D19       -3.14141   0.00002   0.00003   0.00082   0.00085  -3.14056
   D20        0.00111   0.00001   0.00007   0.00084   0.00091   0.00202
   D21       -0.00092  -0.00001  -0.00013  -0.00073  -0.00086  -0.00178
   D22        3.13987  -0.00001  -0.00016  -0.00074  -0.00091   3.13897
   D23        0.00092   0.00001  -0.00010   0.00057   0.00046   0.00138
   D24       -3.13979   0.00001  -0.00007   0.00058   0.00052  -3.13927
   D25        3.10520  -0.00035  -0.00387  -0.02656  -0.03043   3.07477
   D26       -0.58311   0.00033   0.00373   0.02969   0.03249  -0.55061
   D27        2.37502  -0.00055  -0.00950  -0.08521  -0.09379   2.28122
   D28       -1.50327   0.00001   0.00120  -0.00199  -0.00080  -1.50407
   D29        1.29601  -0.00008  -0.00200  -0.01350  -0.01548   1.28053
   D30       -2.74768   0.00047   0.00537   0.04562   0.05156  -2.69612
   D31        0.24328  -0.00055  -0.00596  -0.05141  -0.05795   0.18533
         Item               Value     Threshold  Converged?
 Maximum Force            0.010659     0.000450     NO 
 RMS     Force            0.002304     0.000300     NO 
 Maximum Displacement     0.236267     0.001800     NO 
 RMS     Displacement     0.074141     0.001200     NO 
 Predicted change in Energy=-1.304222D-03
 GradGradGradGradGradGradGradGradGradGradGradGradGradGradGradGradGradGrad

                          Input orientation:                          
 ---------------------------------------------------------------------
 Center     Atomic      Atomic             Coordinates (Angstroms)
 Number     Number       Type             X           Y           Z
 ---------------------------------------------------------------------
      1          6           0        2.702075   -0.187900    0.217062
      2          7           0        2.601081    1.185829   -0.045042
      3          6           0        1.322984    1.693336   -0.322364
      4          6           0        0.242294    0.847907   -0.326980
      5          7           0        1.669283   -1.061595    0.223858
      6          1           0        1.258914    2.783079   -0.528395
      7          1           0        3.433268    1.805029   -0.036329
      8          9           0       -0.962580    1.318688   -0.586773
      9          6           0        0.404835   -0.574894   -0.048751
     10          8           0       -0.507639   -1.494951   -0.019223
     11          1           0       -1.489868   -1.168095   -0.224138
     12          8           0        3.948764   -0.565641    0.466616
     13          1           0        4.025103   -1.582035    0.659959
     14          8           0       -5.207057    0.479957    0.747400
     15          1           0       -5.811075    1.070661    0.297506
     16          1           0       -5.612642    0.240314    1.580938
     17          8           0       -3.132552   -1.098152   -0.512240
     18          1           0       -3.661720   -1.770957   -0.936593
     19          1           0       -3.744812   -0.487791   -0.066090
 ---------------------------------------------------------------------
                    Distance matrix (angstroms):
                    1          2          3          4          5
     1  C    0.000000
     2  N    1.402151   0.000000
     3  C    2.394143   1.402855   0.000000
     4  C    2.723858   2.399491   1.372102   0.000000
     5  N    1.352793   2.447747   2.829828   2.446613   0.000000
     6  H    3.386021   2.141554   1.110898   2.195217   3.939010
     7  H    2.137899   1.037314   2.132508   3.344081   3.375925
     8  F    4.042976   3.607049   2.331110   1.319412   3.639996
     9  C    2.344724   2.814898   2.462261   1.458833   1.382035
    10  O    3.473684   4.105044   3.688937   2.479133   2.232907
    11  H    4.327566   4.723229   4.013673   2.659929   3.192534
    12  O    1.326348   2.268411   3.552490   4.045471   2.345408
    13  H    1.972353   3.191541   4.358264   4.603077   2.451720
    14  O    7.954977   7.879926   6.727415   5.566426   7.066436
    15  H    8.606055   8.419915   7.187960   6.089571   7.778669
    16  H    8.436708   8.426330   7.337352   6.187858   7.520841
    17  O    5.950068   6.189457   5.261203   3.900134   4.858064
    18  H    6.658444   6.982845   6.101302   4.740401   5.501766
    19  H    6.460067   6.562911   5.523183   4.212976   5.452132
                    6          7          8          9         10
     6  H    0.000000
     7  H    2.434446   0.000000
     8  F    2.661369   4.456792   0.000000
     9  C    3.497927   3.851699   2.396861   0.000000
    10  O    4.656341   5.140127   2.906140   1.296143   0.000000
    11  H    4.822878   5.754303   2.567806   1.993125   1.055272
    12  O    4.408998   2.477653   5.364851   3.581217   4.578120
    13  H    5.302661   3.508175   5.903009   3.823995   4.584170
    14  O    6.981461   8.776403   4.527590   5.765406   5.154853
    15  H    7.321150   9.279473   4.934711   6.439355   5.899926
    16  H    7.624514   9.321607   5.242608   6.287327   5.624297
    17  O    5.860818   7.194785   3.248915   3.605791   2.700126
    18  H    6.717031   7.996061   4.117480   4.330786   3.296358
    19  H    5.995798   7.535432   3.357871   4.150598   3.390555
                   11         12         13         14         15
    11  H    0.000000
    12  O    5.515325   0.000000
    13  H    5.600703   1.037433   0.000000
    14  O    4.180605   9.219608   9.460033   0.000000
    15  H    4.894586   9.897502  10.194046   0.957170   0.000000
    16  H    4.715843   9.659801   9.851664   0.957451   1.541444
    17  O    1.669223   7.168456   7.269127   2.894943   3.540329
    18  H    2.363890   7.832065   7.853147   3.207884   3.770613
    19  H    2.360629   7.712389   7.880108   1.932993   2.613507
                   16         17         18         19
    16  H    0.000000
    17  O    3.510517   0.000000
    18  H    3.766865   0.955386   0.000000
    19  H    2.594537   0.972859   1.552803   0.000000
 Stoichiometry    C4H8FN2O4(1+)
 Framework group  C1[X(C4H8FN2O4)]
 Deg. of freedom    51
 Full point group                 C1      NOp   1
 Largest Abelian subgroup         C1      NOp   1
 Largest concise Abelian subgroup C1      NOp   1
                         Standard orientation:                         
 ---------------------------------------------------------------------
 Center     Atomic      Atomic             Coordinates (Angstroms)
 Number     Number       Type             X           Y           Z
 ---------------------------------------------------------------------
      1          6           0        2.715146   -0.286641    0.204361
      2          7           0        2.637774    1.106843    0.069299
      3          6           0        1.368886    1.659223   -0.160493
      4          6           0        0.274102    0.836212   -0.242745
      5          7           0        1.667758   -1.139652    0.130887
      6          1           0        1.323549    2.764192   -0.265751
[...]
 ! A9    A(4,3,6)              123.9862         -DE/DX =    0.0                 !
 ! A10   A(3,4,8)              120.4031         -DE/DX =    0.0                 !
 ! A11   A(3,4,9)              122.5997         -DE/DX =    0.0                 !
 ! A12   A(8,4,9)              116.9971         -DE/DX =    0.0                 !
 ! A13   A(1,5,9)              119.306          -DE/DX =    0.0                 !
 ! A14   A(4,9,5)              116.4554         -DE/DX =    0.0                 !
 ! A15   A(4,9,10)             125.0306         -DE/DX =    0.0                 !
 ! A16   A(5,9,10)             118.514          -DE/DX =    0.0                 !
 ! A17   A(9,10,11)            138.221          -DE/DX =    0.0                 !
 ! A18   A(10,11,17)           110.4327         -DE/DX =    0.0                 !
 ! A19   A(1,12,13)            111.9476         -DE/DX =    0.0                 !
 ! A20   A(15,14,16)           103.1779         -DE/DX =    0.0                 !
 ! A21   A(15,14,19)           103.174          -DE/DX =    0.0                 !
 ! A22   A(16,14,19)            99.9648         -DE/DX =    0.0                 !
 ! A23   A(11,17,18)           103.2975         -DE/DX =    0.0                 !
 ! A24   A(11,17,19)           102.0455         -DE/DX =    0.0                 !
 ! A25   A(18,17,19)           103.1744         -DE/DX =    0.0                 !
 ! A26   A(14,19,17)           178.9766         -DE/DX =    0.0                 !
 ! D1    D(5,1,2,3)             -0.0511         -DE/DX =    0.0                 !
 ! D2    D(5,1,2,7)            179.9871         -DE/DX =    0.0                 !
 ! D3    D(12,1,2,3)          -179.9815         -DE/DX =    0.0                 !
 ! D4    D(12,1,2,7)             0.0566         -DE/DX =    0.0                 !
 ! D5    D(2,1,5,9)              0.3751         -DE/DX =    0.0                 !
 ! D6    D(12,1,5,9)          -179.7011         -DE/DX =    0.0                 !
 ! D7    D(2,1,12,13)         -179.4858         -DE/DX =    0.0                 !
 ! D8    D(5,1,12,13)            0.5817         -DE/DX =    0.0                 !
 ! D9    D(1,2,3,4)             -0.1134         -DE/DX =    0.0                 !
 ! D10   D(1,2,3,6)            179.9147         -DE/DX =    0.0                 !
 ! D11   D(7,2,3,4)            179.8483         -DE/DX =    0.0                 !
 ! D12   D(7,2,3,6)             -0.1236         -DE/DX =    0.0                 !
 ! D13   D(2,3,4,8)           -179.9475         -DE/DX =    0.0                 !
 ! D14   D(2,3,4,9)             -0.0454         -DE/DX =    0.0                 !
 ! D15   D(6,3,4,8)              0.0223         -DE/DX =    0.0                 !
 ! D16   D(6,3,4,9)            179.9244         -DE/DX =    0.0                 !
 ! D17   D(3,4,9,5)              0.3529         -DE/DX =    0.0                 !
 ! D18   D(3,4,9,10)          -179.6082         -DE/DX =    0.0                 !
 ! D19   D(8,4,9,5)           -179.7419         -DE/DX =    0.0                 !
 ! D20   D(8,4,9,10)             0.297          -DE/DX =    0.0                 !
 ! D21   D(1,5,9,4)             -0.4997         -DE/DX =    0.0                 !
 ! D22   D(1,5,9,10)           179.4641         -DE/DX =    0.0                 !
 ! D23   D(4,9,10,11)          -12.1346         -DE/DX =    0.0                 !
 ! D24   D(5,9,10,11)          167.905          -DE/DX =    0.0                 !
 ! D25   D(9,10,11,17)         172.6637         -DE/DX =    0.0                 !
 ! D26   D(10,11,17,18)        -89.2435         -DE/DX =    0.0                 !
 ! D27   D(10,11,17,19)         17.6085         -DE/DX =    0.0                 !
 ! D28   D(15,14,19,17)       -179.8803         -DE/DX =    0.0                 !
 ! D29   D(16,14,19,17)         73.9282         -DE/DX =    0.0                 !
 ! D30   D(11,17,19,14)        -98.9386         -DE/DX =    0.0                 !
 ! D31   D(18,17,19,14)          8.0087         -DE/DX =    0.0                 !
 --------------------------------------------------------------------------------
 GradGradGradGradGradGradGradGradGradGradGradGradGradGradGradGradGradGrad

                          Input orientation:                          
 ---------------------------------------------------------------------
 Center     Atomic      Atomic             Coordinates (Angstroms)
 Number     Number       Type             X           Y           Z
 ---------------------------------------------------------------------
      1          6           0        1.709067   -0.368946    0.784915
      2          7           0        2.439601    0.506434   -0.033545
      3          6           0        1.724401    1.288537   -0.957255
      4          6           0        0.366642    1.160703   -1.017212
      5          7           0        0.375929   -0.518469    0.756128
      6          1           0        2.308547    1.974894   -1.595250
      7          1           0        3.464112    0.571723    0.041036
      8          9           0       -0.338956    1.883616   -1.878912
      9          6           0       -0.380258    0.235655   -0.153943
     10          8           0       -1.610028    0.078484   -0.174958
     11          1           0       -3.080670    0.902183   -0.893145
     12          8           0        2.493566   -1.059233    1.622331
     13          1           0        1.953237   -1.702926    2.211264
     14          8           0       -3.161500   -1.234494    1.084909
     15          1           0       -3.260976   -0.697107    1.913159
     16          1           0       -2.141668   -1.224019    0.918343
     17          8           0       -3.912367    0.338303   -0.741817
     18          1           0       -3.936967   -0.250237   -1.539060
     19          1           0       -3.533058   -0.452313    0.193433
 ---------------------------------------------------------------------
                    Distance matrix (angstroms):
                    1          2          3          4          5
     1  C    0.000000
     2  N    1.403512   0.000000
     3  C    2.404712   1.405857   0.000000
     4  C    2.718381   2.385965   1.365082   0.000000
     5  N    1.341806   2.435724   2.831842   2.442220   0.000000
     6  H    3.393840   2.147667   1.104242   2.183582   3.934571
     7  H    2.125651   1.029295   2.130023   3.325824   3.352126
     8  F    4.045294   3.608654   2.336881   1.327779   3.636552
     9  C    2.369025   2.835387   2.486657   1.469288   1.403122
    10  O    3.483955   4.074633   3.632442   2.405788   2.273169
    11  H    5.231944   5.600796   4.821005   3.459217   4.084902
    12  O    1.339104   2.279507   3.571820   4.052050   2.350983
    13  H    1.968144   3.187003   4.363568   4.597903   2.451175
    14  O    4.955966   5.971106   5.865846   4.754332   3.624113
    15  H    5.107050   6.142861   6.085725   5.019775   3.820695
    16  H    3.946785   4.988846   4.977680   3.965462   2.619620
    17  O    5.867848   6.393545   5.720360   4.366017   4.622487
    18  H    6.106771   6.595433   5.895542   4.558961   4.892945
    19  H    5.276048   6.053376   5.656458   4.390346   3.949833
                    6          7          8          9         10
     6  H    0.000000
     7  H    2.445742   0.000000
     8  F    2.664219   4.457643   0.000000
     9  C    3.511693   3.863954   2.386001   0.000000
    10  O    4.579173   5.102630   2.788832   1.239951   0.000000
    11  H    5.539613   6.619370   3.074401   2.878003   1.832228
    12  O    4.426397   2.470318   5.379799   3.618114   4.622135
    13  H    5.304918   3.488074   5.903132   3.846752   4.643741
    14  O    6.885117   6.946281   5.145250   3.381035   2.391285
    15  H    7.104091   7.095180   5.438578   3.666264   2.772616
    16  H    6.029561   5.951397   4.553219   2.526462   1.781701
    17  O    6.488956   7.421576   4.055890   3.582168   2.385289
    18  H    6.630294   7.612377   4.196964   3.847703   2.717255
    19  H    6.573817   7.073348   4.466930   3.245630   2.028670
                   11         12         13         14         15
    11  H    0.000000
    12  O    6.422373   0.000000
    13  H    6.462520   1.026225   0.000000
    14  O    2.912837   5.683249   5.258198   0.000000
    15  H    3.235055   5.773255   5.318699   0.992309   0.000000
    16  H    2.946853   4.691285   4.320792   1.033398   1.587497
    17  O    1.016160   6.969813   6.876963   2.524761   2.923231
    18  H    1.574332   7.211146   7.132302   2.907804   3.546050
    19  H    1.794426   6.223367   5.977885   1.242816   1.758241
                   16         17         18         19
    16  H    0.000000
    17  O    2.886582   0.000000
    18  H    3.195337   0.991252   0.000000
    19  H    1.748425   1.282046   1.790393   0.000000
 Stoichiometry    C4H8FN2O4(1+)
 Framework group  C1[X(C4H8FN2O4)]
 Deg. of freedom    51
 Full point group                 C1      NOp   1
 Largest Abelian subgroup         C1      NOp   1
 Largest concise Abelian subgroup C1      NOp   1
                         Standard orientation:                         
 ---------------------------------------------------------------------
 Center     Atomic      Atomic             Coordinates (Angstroms)
 Number     Number       Type             X           Y           Z
 ---------------------------------------------------------------------
      1          6           0        1.987591   -0.907006   -0.016765
      2          7           0        2.678680    0.314349    0.006362
      3          6           0        1.917751    1.496316    0.025726
      4          6           0        0.555846    1.403499    0.018837
      5          7           0        0.652055   -1.036502   -0.020903
      6          1           0        2.471250    2.451620    0.045307
      7          1           0        3.707609    0.341713    0.008432
      8          9           0       -0.192509    2.500167    0.035594
      9          6           0       -0.149646    0.114969   -0.009051
     10          8           0       -1.381971   -0.021599   -0.023259
     11          1           0       -2.874039    1.009770    0.235726
     12          8           0        2.813679   -1.960811   -0.033318
     13          1           0        2.301201   -2.849551   -0.058714
     14          8           0       -2.869038   -1.894028    0.006477
     15          1           0       -2.869306   -2.141443    0.967447
     16          1           0       -1.869034   -1.726957   -0.193502
     17          8           0       -3.712568    0.485648    0.001743
     18          1           0       -3.835181    0.671035   -0.964268
     19          1           0       -3.285148   -0.722975    0.015379
 ---------------------------------------------------------------------
 Rotational constants (GHZ):      1.4686440      0.6437185      0.4491778

 **********************************************************************

            Population analysis using the SCF density.

 **********************************************************************

 Orbital symmetries:
       Occupied  (A) (A) (A) (A) (A) (A) (A) (A) (A) (A) (A) (A)
                 (A) (A) (A) (A) (A) (A) (A) (A) (A) (A) (A) (A)
                 (A) (A) (A) (A) (A) (A) (A) (A)
       Virtual   (A) (A) (A) (A) (A) (A) (A) (A) (A) (A) (A) (A)
                 (A) (A) (A) (A) (A) (A) (A) (A)
 The electronic state is 1-A.
 Alpha  occ. eigenvalues --   -1.70186  -1.41867  -1.33777  -1.32864  -1.32061
 Alpha  occ. eigenvalues --   -1.27933  -1.27392  -1.15171  -1.02887  -1.01609
 Alpha  occ. eigenvalues --   -0.89525  -0.87775  -0.86315  -0.85125  -0.83645
 Alpha  occ. eigenvalues --   -0.83169  -0.78490  -0.76833  -0.75354  -0.75018
 Alpha  occ. eigenvalues --   -0.73675  -0.73054  -0.70254  -0.70018  -0.69647
 Alpha  occ. eigenvalues --   -0.66824  -0.63403  -0.61996  -0.60197  -0.56041
 Alpha  occ. eigenvalues --   -0.54946  -0.51625
 Alpha virt. eigenvalues --   -0.17387  -0.16616  -0.14297  -0.10604  -0.09315
 Alpha virt. eigenvalues --   -0.08888  -0.06593  -0.05457  -0.04867  -0.03199
 Alpha virt. eigenvalues --   -0.02427  -0.00662   0.00419   0.01350   0.02134
 Alpha virt. eigenvalues --    0.02258   0.02846   0.03020   0.03599   0.05101
          Condensed to atoms (all electrons):
              1          2          3          4          5          6
     1  C    3.426660   0.000000   0.000000   0.000000   0.000000   0.000000
     2  N    0.000000   5.318554   0.000000   0.000000   0.000000   0.000000
     3  C    0.000000   0.000000   3.934079   0.000000   0.000000   0.000000
     4  C    0.000000   0.000000   0.000000   4.161389   0.000000   0.000000
     5  N    0.000000   0.000000   0.000000   0.000000   5.610284   0.000000
     6  H    0.000000   0.000000   0.000000   0.000000   0.000000   0.781815
     7  H    0.000000   0.000000   0.000000   0.000000   0.000000   0.000000
     8  F    0.000000   0.000000   0.000000   0.000000   0.000000   0.000000
     9  C    0.000000   0.000000   0.000000   0.000000   0.000000   0.000000
    10  O    0.000000   0.000000   0.000000   0.000000   0.000000   0.000000
    11  H    0.000000   0.000000   0.000000   0.000000   0.000000   0.000000
    12  O    0.000000   0.000000   0.000000   0.000000   0.000000   0.000000
    13  H    0.000000   0.000000   0.000000   0.000000   0.000000   0.000000
    14  O    0.000000   0.000000   0.000000   0.000000   0.000000   0.000000
    15  H    0.000000   0.000000   0.000000   0.000000   0.000000   0.000000
    16  H    0.000000   0.000000   0.000000   0.000000   0.000000   0.000000
    17  O    0.000000   0.000000   0.000000   0.000000   0.000000   0.000000
    18  H    0.000000   0.000000   0.000000   0.000000   0.000000   0.000000
    19  H    0.000000   0.000000   0.000000   0.000000   0.000000   0.000000
              7          8          9         10         11         12
     1  C    0.000000   0.000000   0.000000   0.000000   0.000000   0.000000
     2  N    0.000000   0.000000   0.000000   0.000000   0.000000   0.000000
     3  C    0.000000   0.000000   0.000000   0.000000   0.000000   0.000000
     4  C    0.000000   0.000000   0.000000   0.000000   0.000000   0.000000
     5  N    0.000000   0.000000   0.000000   0.000000   0.000000   0.000000
     6  H    0.000000   0.000000   0.000000   0.000000   0.000000   0.000000
     7  H    0.675752   0.000000   0.000000   0.000000   0.000000   0.000000
     8  F    0.000000   7.046779   0.000000   0.000000   0.000000   0.000000
     9  C    0.000000   0.000000   3.345508   0.000000   0.000000   0.000000
    10  O    0.000000   0.000000   0.000000   6.658694   0.000000   0.000000
    11  H    0.000000   0.000000   0.000000   0.000000   0.635537   0.000000
    12  O    0.000000   0.000000   0.000000   0.000000   0.000000   6.376145
    13  H    0.000000   0.000000   0.000000   0.000000   0.000000   0.000000
    14  O    0.000000   0.000000   0.000000   0.000000   0.000000   0.000000
    15  H    0.000000   0.000000   0.000000   0.000000   0.000000   0.000000
    16  H    0.000000   0.000000   0.000000   0.000000   0.000000   0.000000
    17  O    0.000000   0.000000   0.000000   0.000000   0.000000   0.000000
    18  H    0.000000   0.000000   0.000000   0.000000   0.000000   0.000000
    19  H    0.000000   0.000000   0.000000   0.000000   0.000000   0.000000
             13         14         15         16         17         18
     1  C    0.000000   0.000000   0.000000   0.000000   0.000000   0.000000
     2  N    0.000000   0.000000   0.000000   0.000000   0.000000   0.000000
     3  C    0.000000   0.000000   0.000000   0.000000   0.000000   0.000000
     4  C    0.000000   0.000000   0.000000   0.000000   0.000000   0.000000
     5  N    0.000000   0.000000   0.000000   0.000000   0.000000   0.000000
     6  H    0.000000   0.000000   0.000000   0.000000   0.000000   0.000000
     7  H    0.000000   0.000000   0.000000   0.000000   0.000000   0.000000
     8  F    0.000000   0.000000   0.000000   0.000000   0.000000   0.000000
     9  C    0.000000   0.000000   0.000000   0.000000   0.000000   0.000000
    10  O    0.000000   0.000000   0.000000   0.000000   0.000000   0.000000
    11  H    0.000000   0.000000   0.000000   0.000000   0.000000   0.000000
    12  O    0.000000   0.000000   0.000000   0.000000   0.000000   0.000000
    13  H    0.612402   0.000000   0.000000   0.000000   0.000000   0.000000
    14  O    0.000000   6.424143   0.000000   0.000000   0.000000   0.000000
    15  H    0.000000   0.000000   0.660879   0.000000   0.000000   0.000000
    16  H    0.000000   0.000000   0.000000   0.623136   0.000000   0.000000
    17  O    0.000000   0.000000   0.000000   0.000000   6.439099   0.000000
    18  H    0.000000   0.000000   0.000000   0.000000   0.000000   0.659018
    19  H    0.000000   0.000000   0.000000   0.000000   0.000000   0.000000
             19
     1  C    0.000000
     2  N    0.000000
     3  C    0.000000
     4  C    0.000000
     5  N    0.000000
     6  H    0.000000
     7  H    0.000000
     8  F    0.000000
     9  C    0.000000
    10  O    0.000000
    11  H    0.000000
    12  O    0.000000
    13  H    0.000000
    14  O    0.000000
    15  H    0.000000
    16  H    0.000000
    17  O    0.000000
    18  H    0.000000
    19  H    0.610127
 Mulliken atomic charges:
              1
     1  C    0.573340
     2  N   -0.318554
     3  C    0.065921
     4  C   -0.161389
     5  N   -0.610284
     6  H    0.218185
     7  H    0.324248
     8  F   -0.046779
     9  C    0.654492
    10  O   -0.658694
    11  H    0.364463
    12  O   -0.376145
    13  H    0.387598
    14  O   -0.424143
    15  H    0.339121
    16  H    0.376864
    17  O   -0.439099
    18  H    0.340982
    19  H    0.389873
 Sum of Mulliken atomic charges =   1.00000
 Mulliken charges with hydrogens summed into heavy atoms:
              1
     1  C    0.573340
     2  N    0.005693
     3  C    0.284106
     4  C   -0.161389
     5  N   -0.610284
     8  F   -0.046779
     9  C    0.654492
    10  O   -0.658694
    12  O    0.011453
    14  O    0.681715
    17  O    0.266346
 Sum of Mulliken charges with hydrogens summed into heavy atoms =   1.00000
 Charge=              1.0000 electrons
 Dipole moment (field-independent basis, Debye):
    X=              0.1678    Y=             -1.1398    Z=              0.1288  Tot=              1.1593
 N-N= 4.162040406285D+02 E-N=-6.113636384437D+02  KE=-1.636953706903D+02
 1\1\GINC-MCMAHONLAB\FOpt\RPM6\ZDO\C4H8F1N2O4(1+)\MLS001\07-Feb-2017\0\
 \# opt pm6\\5-Fluorouracil_2W_50_PM6\\1,1\C,1.709067406,-0.3689457566,
 0.7849151581\N,2.4396008531,0.5064341828,-0.0335449639\C,1.7244013922,
 1.2885370564,-0.9572547845\C,0.3666416898,1.1607033532,-1.0172119311\N
 ,0.375928999,-0.5184687255,0.756128321\H,2.3085467953,1.9748940447,-1.
 5952500781\H,3.4641116488,0.5717232565,0.0410363615\F,-0.3389555568,1.
 8836157696,-1.878911941\C,-0.3802580208,0.2356548313,-0.153943162\O,-1
 .6100277923,0.0784837039,-0.1749577095\H,-3.0806696368,0.9021826557,-0
 .8931450808\O,2.493566354,-1.0592327295,1.6223310908\H,1.9532371083,-1
 .7029260965,2.2112637237\O,-3.1615003186,-1.2344936596,1.0849093533\H,
 -3.2609762693,-0.6971067856,1.9131588407\H,-2.1416679832,-1.224018546,
 0.9183430833\O,-3.9123672547,0.3383031169,-0.7418171623\H,-3.936966652
 2,-0.2502365569,-1.5390599588\H,-3.5330577618,-0.4523131146,0.19343283
 96\\Version=AM64L-G09RevA.02\State=1-A\HF=-0.1121933\RMSD=6.517e-09\RM
 SF=1.078e-05\Dipole=0.0443653,-0.263937,0.369327\PG=C01 [X(C4H8F1N2O4)
 ]\\@


 SEEN ON A WALL AT THE UNIVERSITY OF ILLINOIS AT CHICAGO CIRCLE:

 TO DO IS TO BE  -- SOCRATES
 TO BE IS TO DO  -- SARTRE
 OO BE DO BE DO  -- SINATRA
 Job cpu time:  0 days  0 hours  2 minutes 60.0 seconds.
 File lengths (MBytes):  RWF=      5 Int=      0 D2E=      0 Chk=      2 Scr=      1
 Normal termination of Gaussian 09 at Tue Feb  7 15:30:09 2017.
